 Entering Gaussian System, Link 0=g16
 Initial command:
 /accre/arch/easybuild/software/BinDist/Gaussian/16.B.01-AVX2/g16/l1.exe "/scratch/yang_lab/shaoqz//36121964/Gau-184041.inp" -scrdir="/scratch/yang_lab/shaoqz//36121964/"
 Entering Link 1 = /accre/arch/easybuild/software/BinDist/Gaussian/16.B.01-AVX2/g16/l1.exe PID=    184043.
  
 Copyright (c) 1988-2017, Gaussian, Inc.  All Rights Reserved.
  
 This is part of the Gaussian(R) 16 program.  It is based on
 the Gaussian(R) 09 system (copyright 2009, Gaussian, Inc.),
 the Gaussian(R) 03 system (copyright 2003, Gaussian, Inc.),
 the Gaussian(R) 98 system (copyright 1998, Gaussian, Inc.),
 the Gaussian(R) 94 system (copyright 1995, Gaussian, Inc.),
 the Gaussian 92(TM) system (copyright 1992, Gaussian, Inc.),
 the Gaussian 90(TM) system (copyright 1990, Gaussian, Inc.),
 the Gaussian 88(TM) system (copyright 1988, Gaussian, Inc.),
 the Gaussian 86(TM) system (copyright 1986, Carnegie Mellon
 University), and the Gaussian 82(TM) system (copyright 1983,
 Carnegie Mellon University). Gaussian is a federally registered
 trademark of Gaussian, Inc.
  
 This software contains proprietary and confidential information,
 including trade secrets, belonging to Gaussian, Inc.
  
 This software is provided under written license and may be
 used, copied, transmitted, or stored only in accord with that
 written license.
  
 The following legend is applicable only to US Government
 contracts under FAR:
  
                    RESTRICTED RIGHTS LEGEND
  
 Use, reproduction and disclosure by the US Government is
 subject to restrictions as set forth in subparagraphs (a)
 and (c) of the Commercial Computer Software - Restricted
 Rights clause in FAR 52.227-19.
  
 Gaussian, Inc.
 340 Quinnipiac St., Bldg. 40, Wallingford CT 06492
  
  
 ---------------------------------------------------------------
 Warning -- This program may not be used in any manner that
 competes with the business of Gaussian, Inc. or will provide
 assistance to any competitor of Gaussian, Inc.  The licensee
 of this program is prohibited from giving any competitor of
 Gaussian, Inc. access to this program.  By using this program,
 the user acknowledges that Gaussian, Inc. is engaged in the
 business of creating and licensing software in the field of
 computational chemistry and represents and warrants to the
 licensee that it is not a competitor of Gaussian, Inc. and that
 it will not use this program in any manner prohibited above.
 ---------------------------------------------------------------
  

 Cite this work as:
 Gaussian 16, Revision B.01,
 M. J. Frisch, G. W. Trucks, H. B. Schlegel, G. E. Scuseria, 
 M. A. Robb, J. R. Cheeseman, G. Scalmani, V. Barone, 
 G. A. Petersson, H. Nakatsuji, X. Li, M. Caricato, A. V. Marenich, 
 J. Bloino, B. G. Janesko, R. Gomperts, B. Mennucci, H. P. Hratchian, 
 J. V. Ortiz, A. F. Izmaylov, J. L. Sonnenberg, D. Williams-Young, 
 F. Ding, F. Lipparini, F. Egidi, J. Goings, B. Peng, A. Petrone, 
 T. Henderson, D. Ranasinghe, V. G. Zakrzewski, J. Gao, N. Rega, 
 G. Zheng, W. Liang, M. Hada, M. Ehara, K. Toyota, R. Fukuda, 
 J. Hasegawa, M. Ishida, T. Nakajima, Y. Honda, O. Kitao, H. Nakai, 
 T. Vreven, K. Throssell, J. A. Montgomery, Jr., J. E. Peralta, 
 F. Ogliaro, M. J. Bearpark, J. J. Heyd, E. N. Brothers, K. N. Kudin, 
 V. N. Staroverov, T. A. Keith, R. Kobayashi, J. Normand, 
 K. Raghavachari, A. P. Rendell, J. C. Burant, S. S. Iyengar, 
 J. Tomasi, M. Cossi, J. M. Millam, M. Klene, C. Adamo, R. Cammi, 
 J. W. Ochterski, R. L. Martin, K. Morokuma, O. Farkas, 
 J. B. Foresman, and D. J. Fox, Gaussian, Inc., Wallingford CT, 2016.
 
 ******************************************
 Gaussian 16:  ES64L-G16RevB.01 20-Dec-2017
                18-Dec-2021 
 ******************************************
 %mem=50000MB
 %nprocshared=24
 Will use up to   24 processors via shared memory.
 ------------------------------------------------------------
 # opt freq scrf=(smd,solvent=water) def2svp em=gd3bj pbe1pbe
 ------------------------------------------------------------
 1/18=20,19=15,26=3,38=1/1,3;
 2/9=110,12=2,17=6,18=5,40=1/2;
 3/5=43,7=101,11=2,25=1,30=1,70=32201,71=1,72=1,74=-13,124=41/1,2,3;
 4//1;
 5/5=2,38=5,53=1/2;
 6/7=2,8=2,9=2,10=2,28=1/1;
 7//1,2,3,16;
 1/18=20,19=15,26=3/3(2);
 2/9=110/2;
 99//99;
 2/9=110/2;
 3/5=43,7=101,11=2,25=1,30=1,70=32205,71=1,72=1,74=-13,124=41/1,2,3;
 4/5=5,16=3,69=1/1;
 5/5=2,38=5,53=1/2;
 7//1,2,3,16;
 1/18=20,19=15,26=3/3(-5);
 2/9=110/2;
 6/7=2,8=2,9=2,10=2,19=2,28=1/1;
 99/9=1/99;
 -------------------
 Title Card Required
 -------------------
 Symbolic Z-matrix:
 Charge =  0 Multiplicity = 1
 S                     3.62775  -0.06718  -0.54336 
 C                     3.76867   0.70365   1.07687 
 H                     4.0459    1.7576    0.92507 
 H                     2.82314   0.66205   1.62932 
 H                     4.55534   0.21206   1.67746 
 C                     3.19065  -1.74592  -0.04517 
 H                     3.01634  -2.32681  -0.96068 
 H                     4.00455  -2.21784   0.51702 
 H                     2.27631  -1.7589    0.55866 
 C                     0.24705   0.46916  -0.2388 
 H                     0.55132  -0.07933  -1.1386 
 C                     0.39299   1.9587   -0.36907 
 H                    -0.17609   2.35248  -1.22459 
 H                     0.07363   2.48928   0.54016 
 H                     1.45954   2.18083  -0.54468 
 I                    -1.81853  -0.14058   0.07612 
 H                     0.77935   0.06301   0.62742 
 
 Add virtual bond connecting atoms H17        and H4         Dist= 4.45D+00.
 Add virtual bond connecting atoms H17        and H9         Dist= 4.46D+00.

 GradGradGradGradGradGradGradGradGradGradGradGradGradGradGradGradGradGrad
 Berny optimization.
 Initialization pass.
                           ----------------------------
                           !    Initial Parameters    !
                           ! (Angstroms and Degrees)  !
 --------------------------                            --------------------------
 ! Name  Definition              Value          Derivative Info.                !
 --------------------------------------------------------------------------------
 ! R1    R(1,2)                  1.7998         estimate D2E/DX2                !
 ! R2    R(1,6)                  1.8048         estimate D2E/DX2                !
 ! R3    R(2,3)                  1.1003         estimate D2E/DX2                !
 ! R4    R(2,4)                  1.0959         estimate D2E/DX2                !
 ! R5    R(2,5)                  1.1051         estimate D2E/DX2                !
 ! R6    R(4,17)                 2.3537         estimate D2E/DX2                !
 ! R7    R(6,7)                  1.0982         estimate D2E/DX2                !
 ! R8    R(6,8)                  1.096          estimate D2E/DX2                !
 ! R9    R(6,9)                  1.0958         estimate D2E/DX2                !
 ! R10   R(9,17)                 2.359          estimate D2E/DX2                !
 ! R11   R(10,11)                1.0968         estimate D2E/DX2                !
 ! R12   R(10,12)                1.5023         estimate D2E/DX2                !
 ! R13   R(10,16)                2.1766         estimate D2E/DX2                !
 ! R14   R(10,17)                1.0948         estimate D2E/DX2                !
 ! R15   R(12,13)                1.1004         estimate D2E/DX2                !
 ! R16   R(12,14)                1.1001         estimate D2E/DX2                !
 ! R17   R(12,15)                1.1035         estimate D2E/DX2                !
 ! A1    A(2,1,6)               99.7202         estimate D2E/DX2                !
 ! A2    A(1,2,3)              107.8046         estimate D2E/DX2                !
 ! A3    A(1,2,4)              111.7166         estimate D2E/DX2                !
 ! A4    A(1,2,5)              110.7612         estimate D2E/DX2                !
 ! A5    A(3,2,4)              108.862          estimate D2E/DX2                !
 ! A6    A(3,2,5)              108.7667         estimate D2E/DX2                !
 ! A7    A(4,2,5)              108.8649         estimate D2E/DX2                !
 ! A8    A(2,4,17)             122.9754         estimate D2E/DX2                !
 ! A9    A(1,6,7)              107.4777         estimate D2E/DX2                !
 ! A10   A(1,6,8)              111.2385         estimate D2E/DX2                !
 ! A11   A(1,6,9)              111.4198         estimate D2E/DX2                !
 ! A12   A(7,6,8)              108.5261         estimate D2E/DX2                !
 ! A13   A(7,6,9)              108.7032         estimate D2E/DX2                !
 ! A14   A(8,6,9)              109.383          estimate D2E/DX2                !
 ! A15   A(6,9,17)             122.4387         estimate D2E/DX2                !
 ! A16   A(11,10,12)           113.4357         estimate D2E/DX2                !
 ! A17   A(11,10,16)           103.9967         estimate D2E/DX2                !
 ! A18   A(11,10,17)           109.1887         estimate D2E/DX2                !
 ! A19   A(12,10,16)           112.4877         estimate D2E/DX2                !
 ! A20   A(12,10,17)           112.9039         estimate D2E/DX2                !
 ! A21   A(16,10,17)           104.064          estimate D2E/DX2                !
 ! A22   A(10,12,13)           111.8386         estimate D2E/DX2                !
 ! A23   A(10,12,14)           112.2304         estimate D2E/DX2                !
 ! A24   A(10,12,15)           107.895          estimate D2E/DX2                !
 ! A25   A(13,12,14)           108.6538         estimate D2E/DX2                !
 ! A26   A(13,12,15)           107.7035         estimate D2E/DX2                !
 ! A27   A(14,12,15)           108.362          estimate D2E/DX2                !
 ! A28   A(4,17,9)              69.9982         estimate D2E/DX2                !
 ! A29   A(4,17,10)            131.6489         estimate D2E/DX2                !
 ! A30   A(9,17,10)            124.8877         estimate D2E/DX2                !
 ! D1    D(6,1,2,3)            179.5752         estimate D2E/DX2                !
 ! D2    D(6,1,2,4)            -60.8602         estimate D2E/DX2                !
 ! D3    D(6,1,2,5)             60.6865         estimate D2E/DX2                !
 ! D4    D(2,1,6,7)            176.91           estimate D2E/DX2                !
 ! D5    D(2,1,6,8)            -64.4201         estimate D2E/DX2                !
 ! D6    D(2,1,6,9)             57.9203         estimate D2E/DX2                !
 ! D7    D(1,2,4,17)           -12.257          estimate D2E/DX2                !
 ! D8    D(3,2,4,17)           106.682          estimate D2E/DX2                !
 ! D9    D(5,2,4,17)          -134.8932         estimate D2E/DX2                !
 ! D10   D(2,4,17,9)            63.9073         estimate D2E/DX2                !
 ! D11   D(2,4,17,10)          -55.4893         estimate D2E/DX2                !
 ! D12   D(1,6,9,17)            16.703          estimate D2E/DX2                !
 ! D13   D(7,6,9,17)          -101.5531         estimate D2E/DX2                !
 ! D14   D(8,6,9,17)           140.1062         estimate D2E/DX2                !
 ! D15   D(6,9,17,4)           -67.0273         estimate D2E/DX2                !
 ! D16   D(6,9,17,10)           60.4438         estimate D2E/DX2                !
 ! D17   D(11,10,12,13)         57.0411         estimate D2E/DX2                !
 ! D18   D(11,10,12,14)        179.4555         estimate D2E/DX2                !
 ! D19   D(11,10,12,15)        -61.231          estimate D2E/DX2                !
 ! D20   D(16,10,12,13)        -60.653          estimate D2E/DX2                !
 ! D21   D(16,10,12,14)         61.7614         estimate D2E/DX2                !
 ! D22   D(16,10,12,15)       -178.925          estimate D2E/DX2                !
 ! D23   D(17,10,12,13)       -178.0666         estimate D2E/DX2                !
 ! D24   D(17,10,12,14)        -55.6522         estimate D2E/DX2                !
 ! D25   D(17,10,12,15)         63.6614         estimate D2E/DX2                !
 ! D26   D(11,10,17,4)          91.3938         estimate D2E/DX2                !
 ! D27   D(11,10,17,9)          -2.1664         estimate D2E/DX2                !
 ! D28   D(12,10,17,4)         -35.7772         estimate D2E/DX2                !
 ! D29   D(12,10,17,9)        -129.3373         estimate D2E/DX2                !
 ! D30   D(16,10,17,4)        -158.0461         estimate D2E/DX2                !
 ! D31   D(16,10,17,9)         108.3938         estimate D2E/DX2                !
 --------------------------------------------------------------------------------
 Trust Radius=3.00D-01 FncErr=1.00D-07 GrdErr=1.00D-06 EigMax=2.50D+02 EigMin=1.00D-04
 Number of steps in this run=     88 maximum allowed number of steps=    102.
 GradGradGradGradGradGradGradGradGradGradGradGradGradGradGradGradGradGrad

                          Input orientation:                          
 ---------------------------------------------------------------------
 Center     Atomic      Atomic             Coordinates (Angstroms)
 Number     Number       Type             X           Y           Z
 ---------------------------------------------------------------------
      1         16           0        3.627753   -0.067178   -0.543361
      2          6           0        3.768668    0.703651    1.076873
      3          1           0        4.045896    1.757596    0.925074
      4          1           0        2.823142    0.662054    1.629323
      5          1           0        4.555341    0.212062    1.677461
      6          6           0        3.190651   -1.745916   -0.045172
      7          1           0        3.016339   -2.326808   -0.960677
      8          1           0        4.004547   -2.217842    0.517019
      9          1           0        2.276305   -1.758897    0.558655
     10          6           0        0.247047    0.469157   -0.238799
     11          1           0        0.551317   -0.079327   -1.138596
     12          6           0        0.392990    1.958698   -0.369069
     13          1           0       -0.176091    2.352483   -1.224585
     14          1           0        0.073630    2.489282    0.540160
     15          1           0        1.459542    2.180830   -0.544675
     16         53           0       -1.818525   -0.140581    0.076118
     17          1           0        0.779347    0.063011    0.627419
 ---------------------------------------------------------------------
                    Distance matrix (angstroms):
                    1          2          3          4          5
     1  S    0.000000
     2  C    1.799776   0.000000
     3  H    2.379274   1.100317   0.000000
     4  H    2.428937   1.095879   1.786423   0.000000
     5  H    2.422900   1.105088   1.792846   1.790342   0.000000
     6  C    1.804830   2.755625   3.734624   2.955895   2.943386
     7  H    2.377795   3.728443   4.615019   3.959636   3.971670
     8  H    2.427290   2.983990   3.996539   3.305562   2.748533
     9  H    2.429560   2.925720   3.953661   2.703029   3.214096
    10  C    3.436508   3.766669   4.176832   3.188002   4.722240
    11  H    3.133514   3.984056   4.454784   3.656803   4.903804
    12  C    3.820765   3.880862   3.880589   3.403013   4.956227
    13  H    4.559392   4.855562   4.774945   4.471883   5.948926
    14  H    4.510133   4.138822   4.057391   3.476328   5.154117
    15  H    3.123248   3.184892   3.004749   2.982005   4.289278
    16  I    5.481887   5.738551   6.222157   4.960014   6.581400
    17  H    3.082384   3.090060   3.691959   2.353670   3.922109
                    6          7          8          9         10
     6  C    0.000000
     7  H    1.098166   0.000000
     8  H    1.095993   1.781015   0.000000
     9  H    1.095812   1.782847   1.788626   0.000000
    10  C    3.689017   4.000938   4.680815   3.117378   0.000000
    11  H    3.307443   3.340533   4.386240   2.945709   1.096836
    12  C    4.653599   5.059399   5.592136   4.269433   1.502332
    13  H    5.433493   5.670716   6.434189   5.108585   2.167426
    14  H    5.291062   5.840100   6.132672   4.785305   2.172040
    15  H    4.320368   4.787011   5.191585   4.172036   2.119794
    16  I    5.261526   5.406518   6.198191   4.429382   2.176589
    17  H    3.088524   3.638326   3.951758   2.359017   1.094820
                   11         12         13         14         15
    11  H    0.000000
    12  C    2.184213   0.000000
    13  H    2.539728   1.100376   0.000000
    14  H    3.105505   1.100094   1.787568   0.000000
    15  H    2.507175   1.103500   1.779617   1.786830   0.000000
    16  I    2.663725   3.081552   3.256499   3.272883   4.064487
    17  H    1.786356   2.176210   3.095878   2.528328   2.514285
                   16         17
    16  I    0.000000
    17  H    2.663517   0.000000
 Stoichiometry    C4H11IS
 Framework group  C1[X(C4H11IS)]
 Deg. of freedom    45
 Full point group                 C1      NOp   1
 Largest Abelian subgroup         C1      NOp   1
 Largest concise Abelian subgroup C1      NOp   1
                         Standard orientation:                         
 ---------------------------------------------------------------------
 Center     Atomic      Atomic             Coordinates (Angstroms)
 Number     Number       Type             X           Y           Z
 ---------------------------------------------------------------------
      1         16           0        3.335111   -0.036009   -0.541852
      2          6           0        3.457710    0.754018    1.070605
      3          1           0        3.714052    1.811698    0.908433
      4          1           0        2.512233    0.699139    1.621979
      5          1           0        4.253005    0.284456    1.677431
      6          6           0        2.930822   -1.717985   -0.027147
      7          1           0        2.769788   -2.311585   -0.936914
      8          1           0        3.753009   -2.167736    0.541125
      9          1           0        2.015856   -1.743105    0.575356
     10          6           0       -0.056186    0.435575   -0.248078
     11          1           0        0.260589   -0.115877   -1.141725
     12          6           0        0.060141    1.926330   -0.393397
     13          1           0       -0.515199    2.299865   -1.253794
     14          1           0       -0.271379    2.459681    0.509841
     15          1           0        1.122341    2.167978   -0.569611
     16         53           0       -2.109691   -0.212171    0.069859
     17          1           0        0.482609    0.049055    0.623090
 ---------------------------------------------------------------------
 Rotational constants (GHZ):           3.0564167           0.4033711           0.3763973
 Standard basis: def2SVP (5D, 7F)
 There are   162 symmetry adapted cartesian basis functions of A   symmetry.
 There are   155 symmetry adapted basis functions of A   symmetry.
   155 basis functions,   281 primitive gaussians,   162 cartesian basis functions
    38 alpha electrons       38 beta electrons
       nuclear repulsion energy       393.6127238336 Hartrees.
 NAtoms=   17 NActive=   17 NUniq=   17 SFac= 1.00D+00 NAtFMM=   60 NAOKFM=F Big=F
 Integral buffers will be    131072 words long.
 Raffenetti 2 integral format.
 Two-electron integral symmetry is turned on.
 Nuclear repulsion after empirical dispersion term =      393.5989574129 Hartrees.
 ------------------------------------------------------------------------------
 Polarizable Continuum Model (PCM)
 =================================
 Model                : PCM.
 Atomic radii         : SMD-Coulomb.
 Polarization charges : Total charges.
 Charge compensation  : None.
 Solution method      : On-the-fly selection.
 Cavity type          : VdW (van der Waals Surface) (Alpha=1.000).
 Cavity algorithm     : GePol (No added spheres)
                        Default sphere list used, NSphG=   17.
                        Lebedev-Laikov grids with approx.  5.0 points / Ang**2.
                        Smoothing algorithm: York/Karplus (Gamma=1.0000).
                        Polarization charges: spherical gaussians, with
                                              point-specific exponents (IZeta= 3).
                        Self-potential: point-specific (ISelfS= 7).
                        Self-field    : sphere-specific E.n sum rule (ISelfD= 2).
 1st derivatives      : Analytical E(r).r(x)/FMM algorithm (CHGder, D1EAlg=3).
                        Cavity 1st derivative terms included.
 Solvent              : Water, Eps=  78.355300 Eps(inf)=   1.777849
 ------------------------------------------------------------------------------
 Spheres list:
 ISph  on   Nord     Re0    Alpha      Xe            Ye            Ze
    1   S      1    2.4900  1.000      3.335111     -0.036009     -0.541852
    2   C      2    1.8500  1.000      3.457710      0.754018      1.070605
    3   H      3    1.2000  1.000      3.714052      1.811698      0.908433
    4   H      4    1.2000  1.000      2.512233      0.699139      1.621979
    5   H      5    1.2000  1.000      4.253005      0.284456      1.677431
    6   C      6    1.8500  1.000      2.930822     -1.717985     -0.027147
    7   H      7    1.2000  1.000      2.769788     -2.311585     -0.936914
    8   H      8    1.2000  1.000      3.753009     -2.167736      0.541125
    9   H      9    1.2000  1.000      2.015856     -1.743105      0.575356
   10   C     10    1.8500  1.000     -0.056186      0.435575     -0.248078
   11   H     11    1.2000  1.000      0.260589     -0.115877     -1.141725
   12   C     12    1.8500  1.000      0.060141      1.926330     -0.393397
   13   H     13    1.2000  1.000     -0.515199      2.299865     -1.253794
   14   H     14    1.2000  1.000     -0.271379      2.459681      0.509841
   15   H     15    1.2000  1.000      1.122341      2.167978     -0.569611
   16   I     16    1.9800  1.000     -2.109691     -0.212171      0.069859
   17   H     17    1.2000  1.000      0.482609      0.049055      0.623090
 ------------------------------------------------------------------------------
 ------------------------------------------------------------------------------
 Atomic radii for non-electrostatic terms: SMD-CDS.
 ------------------------------------------------------------------------------
 Nuclear repulsion after PCM non-electrostatic terms =      393.6052944252 Hartrees.
 One-electron integrals computed using PRISM.
   1 Symmetry operations used in ECPInt.
 ECPInt:  NShTT=    2850 NPrTT=   10580 LenC2=    2800 LenP2D=    8135.
 LDataN:  DoStor=T MaxTD1= 6 Len=  172
 NBasis=   155 RedAO= T EigKep=  3.65D-03  NBF=   155
 NBsUse=   155 1.00D-06 EigRej= -1.00D+00 NBFU=   155
 Defaulting to unpruned grid for atomic number  53.
 ExpMin= 1.11D-01 ExpMax= 9.18D+03 ExpMxC= 1.38D+03 IAcc=3 IRadAn=         5 AccDes= 0.00D+00
 Harris functional with IExCor= 1009 and IRadAn=       5 diagonalized for initial guess.
 HarFok:  IExCor= 1009 AccDes= 0.00D+00 IRadAn=         5 IDoV= 1 UseB2=F ITyADJ=14
 ICtDFT=  3500011 ScaDFX=  1.000000  1.000000  1.000000  1.000000
 Defaulting to unpruned grid for atomic number  53.
 FoFCou: FMM=F IPFlag=           0 FMFlag=      100000 FMFlg1=           0
         NFxFlg=           0 DoJE=T BraDBF=F KetDBF=T FulRan=T
         wScrn=  0.000000 ICntrl=       500 IOpCl=  0 I1Cent=   200000004 NGrid=           0
         NMat0=    1 NMatS0=      1 NMatT0=    0 NMatD0=    1 NMtDS0=    0 NMtDT0=    0
 Petite list used in FoFCou.
 Requested convergence on RMS density matrix=1.00D-08 within 128 cycles.
 Requested convergence on MAX density matrix=1.00D-06.
 Requested convergence on             energy=1.00D-06.
 No special actions if energy rises.
 Defaulting to unpruned grid for atomic number  53.
 Defaulting to unpruned grid for atomic number  53.
 Defaulting to unpruned grid for atomic number  53.
 Defaulting to unpruned grid for atomic number  53.
 Defaulting to unpruned grid for atomic number  53.
 Defaulting to unpruned grid for atomic number  53.
 Defaulting to unpruned grid for atomic number  53.
 Defaulting to unpruned grid for atomic number  53.
 Defaulting to unpruned grid for atomic number  53.
 Defaulting to unpruned grid for atomic number  53.
 Defaulting to unpruned grid for atomic number  53.
 Defaulting to unpruned grid for atomic number  53.
 Defaulting to unpruned grid for atomic number  53.
 Defaulting to unpruned grid for atomic number  53.
 Defaulting to unpruned grid for atomic number  53.
 Defaulting to unpruned grid for atomic number  53.
 Defaulting to unpruned grid for atomic number  53.
 Defaulting to unpruned grid for atomic number  53.
 Defaulting to unpruned grid for atomic number  53.
 Defaulting to unpruned grid for atomic number  53.
 Defaulting to unpruned grid for atomic number  53.
 Defaulting to unpruned grid for atomic number  53.
 Defaulting to unpruned grid for atomic number  53.
 Defaulting to unpruned grid for atomic number  53.
 Inv3:  Mode=1 IEnd=     6544587.
 Iteration    1 A*A^-1 deviation from unit magnitude is 3.00D-15 for    940.
 Iteration    1 A*A^-1 deviation from orthogonality  is 2.12D-15 for    899    439.
 Iteration    1 A^-1*A deviation from unit magnitude is 3.11D-15 for    218.
 Iteration    1 A^-1*A deviation from orthogonality  is 1.28D-15 for   1445   1368.
 Error on total polarization charges =  0.06126
 SCF Done:  E(RPBE1PBE) =  -854.381819620     A.U. after   11 cycles
            NFock= 11  Conv=0.58D-08     -V/T= 2.2801
 SMD-CDS (non-electrostatic) energy       (kcal/mol) =       3.98
 (included in total energy above)

 **********************************************************************

            Population analysis using the SCF Density.

 **********************************************************************

 Orbital symmetries:
       Occupied  (A) (A) (A) (A) (A) (A) (A) (A) (A) (A) (A) (A)
                 (A) (A) (A) (A) (A) (A) (A) (A) (A) (A) (A) (A)
                 (A) (A) (A) (A) (A) (A) (A) (A) (A) (A) (A) (A)
                 (A) (A)
       Virtual   (A) (A) (A) (A) (A) (A) (A) (A) (A) (A) (A) (A)
                 (A) (A) (A) (A) (A) (A) (A) (A) (A) (A) (A) (A)
                 (A) (A) (A) (A) (A) (A) (A) (A) (A) (A) (A) (A)
                 (A) (A) (A) (A) (A) (A) (A) (A) (A) (A) (A) (A)
                 (A) (A) (A) (A) (A) (A) (A) (A) (A) (A) (A) (A)
                 (A) (A) (A) (A) (A) (A) (A) (A) (A) (A) (A) (A)
                 (A) (A) (A) (A) (A) (A) (A) (A) (A) (A) (A) (A)
                 (A) (A) (A) (A) (A) (A) (A) (A) (A) (A) (A) (A)
                 (A) (A) (A) (A) (A) (A) (A) (A) (A) (A) (A) (A)
                 (A) (A) (A) (A) (A) (A) (A) (A) (A)
 The electronic state is 1-A.
 Alpha  occ. eigenvalues --  -88.98875 -10.27141 -10.24528 -10.24443 -10.22661
 Alpha  occ. eigenvalues --   -7.98919  -6.88111  -5.93186  -5.92805  -5.92120
 Alpha  occ. eigenvalues --   -4.89744  -4.88443  -4.88429  -1.92427  -1.92011
 Alpha  occ. eigenvalues --   -1.91998  -1.90892  -1.90892  -0.81132  -0.79190
 Alpha  occ. eigenvalues --   -0.70729  -0.69203  -0.60511  -0.60004  -0.46724
 Alpha  occ. eigenvalues --   -0.44648  -0.44267  -0.42934  -0.42583  -0.40759
 Alpha  occ. eigenvalues --   -0.40010  -0.36699  -0.36391  -0.32553  -0.31904
 Alpha  occ. eigenvalues --   -0.26227  -0.26063  -0.22460
 Alpha virt. eigenvalues --   -0.01140   0.06036   0.07359   0.10473   0.11465
 Alpha virt. eigenvalues --    0.11884   0.12961   0.13264   0.15057   0.15892
 Alpha virt. eigenvalues --    0.16425   0.17679   0.18981   0.22655   0.23138
 Alpha virt. eigenvalues --    0.30708   0.36258   0.36942   0.37284   0.37819
 Alpha virt. eigenvalues --    0.39285   0.41782   0.42665   0.43169   0.43662
 Alpha virt. eigenvalues --    0.44349   0.45415   0.47038   0.49092   0.52642
 Alpha virt. eigenvalues --    0.55001   0.59634   0.61551   0.63190   0.65037
 Alpha virt. eigenvalues --    0.66714   0.67167   0.68005   0.68313   0.69300
 Alpha virt. eigenvalues --    0.69697   0.70326   0.70995   0.71721   0.73202
 Alpha virt. eigenvalues --    0.73706   0.74297   0.74939   0.76301   0.77791
 Alpha virt. eigenvalues --    0.78837   0.79609   0.81870   0.83710   0.89940
 Alpha virt. eigenvalues --    0.92309   0.97256   1.05449   1.12336   1.15747
 Alpha virt. eigenvalues --    1.19962   1.21926   1.23751   1.30052   1.30783
 Alpha virt. eigenvalues --    1.34514   1.36977   1.52976   1.54090   1.54822
 Alpha virt. eigenvalues --    1.56313   1.71939   1.75459   1.76038   1.77285
 Alpha virt. eigenvalues --    1.78717   1.79841   1.80335   1.82722   1.83469
 Alpha virt. eigenvalues --    1.83869   1.86837   1.91852   1.92604   1.95984
 Alpha virt. eigenvalues --    1.96688   1.97339   1.99246   2.00433   2.06325
 Alpha virt. eigenvalues --    2.17943   2.24451   2.25964   2.27377   2.37154
 Alpha virt. eigenvalues --    2.42288   2.44185   2.44901   2.45448   2.47134
 Alpha virt. eigenvalues --    2.51313   2.57466   2.69108   2.73319   2.76144
 Alpha virt. eigenvalues --    2.86748   2.91454   2.93027   2.93598   2.96173
 Alpha virt. eigenvalues --    2.98380   2.99001   3.04303  18.63284  18.64530
 Alpha virt. eigenvalues --   18.94070  55.90843
          Condensed to atoms (all electrons):
               1          2          3          4          5          6
     1  S   15.824269   0.269105  -0.027759  -0.036452  -0.034511   0.270679
     2  C    0.269105   4.776196   0.395131   0.392734   0.399001  -0.040439
     3  H   -0.027759   0.395131   0.557154  -0.013527  -0.016537   0.004302
     4  H   -0.036452   0.392734  -0.013527   0.584252  -0.025044  -0.005228
     5  H   -0.034511   0.399001  -0.016537  -0.025044   0.582203  -0.002993
     6  C    0.270679  -0.040439   0.004302  -0.005228  -0.002993   4.770753
     7  H   -0.027385   0.004254  -0.000194   0.000104   0.000006   0.394651
     8  H   -0.034542  -0.002819  -0.000061  -0.001636   0.005993   0.399556
     9  H   -0.035564  -0.005127   0.000139   0.007338  -0.001798   0.393028
    10  C   -0.001358  -0.003294   0.000030  -0.001069   0.000134  -0.002981
    11  H    0.009675  -0.000359  -0.000024  -0.000464   0.000043  -0.000673
    12  C   -0.007862   0.000994   0.000078   0.001442  -0.000063   0.000381
    13  H    0.000010   0.000025  -0.000005  -0.000007  -0.000001  -0.000008
    14  H    0.000046  -0.000043   0.000006   0.000264  -0.000002  -0.000008
    15  H    0.013844  -0.001609   0.000661  -0.001437   0.000285  -0.000181
    16  I    0.000515   0.000002  -0.000001  -0.000066   0.000003  -0.000093
    17  H    0.000662   0.001045  -0.000157   0.004510  -0.000149  -0.000028
               7          8          9         10         11         12
     1  S   -0.027385  -0.034542  -0.035564  -0.001358   0.009675  -0.007862
     2  C    0.004254  -0.002819  -0.005127  -0.003294  -0.000359   0.000994
     3  H   -0.000194  -0.000061   0.000139   0.000030  -0.000024   0.000078
     4  H    0.000104  -0.001636   0.007338  -0.001069  -0.000464   0.001442
     5  H    0.000006   0.005993  -0.001798   0.000134   0.000043  -0.000063
     6  C    0.394651   0.399556   0.393028  -0.002981  -0.000673   0.000381
     7  H    0.559130  -0.016108  -0.013636   0.000045   0.000227   0.000008
     8  H   -0.016108   0.582066  -0.025081   0.000120   0.000151  -0.000025
     9  H   -0.013636  -0.025081   0.584707   0.000646  -0.001105   0.000253
    10  C    0.000045   0.000120   0.000646   4.950552   0.381930   0.386605
    11  H    0.000227   0.000151  -0.001105   0.381930   0.576002  -0.017099
    12  C    0.000008  -0.000025   0.000253   0.386605  -0.017099   4.629917
    13  H    0.000000   0.000000  -0.000001  -0.030517  -0.007103   0.402615
    14  H    0.000000   0.000001  -0.000001  -0.029424   0.006987   0.403804
    15  H   -0.000022   0.000035  -0.000255  -0.012688  -0.005763   0.371808
    16  I    0.000003   0.000003   0.000221   0.256925  -0.041846  -0.076948
    17  H   -0.000180  -0.000055   0.003679   0.381211  -0.020880  -0.018168
              13         14         15         16         17
     1  S    0.000010   0.000046   0.013844   0.000515   0.000662
     2  C    0.000025  -0.000043  -0.001609   0.000002   0.001045
     3  H   -0.000005   0.000006   0.000661  -0.000001  -0.000157
     4  H   -0.000007   0.000264  -0.001437  -0.000066   0.004510
     5  H   -0.000001  -0.000002   0.000285   0.000003  -0.000149
     6  C   -0.000008  -0.000008  -0.000181  -0.000093  -0.000028
     7  H    0.000000   0.000000  -0.000022   0.000003  -0.000180
     8  H    0.000000   0.000001   0.000035   0.000003  -0.000055
     9  H   -0.000001  -0.000001  -0.000255   0.000221   0.003679
    10  C   -0.030517  -0.029424  -0.012688   0.256925   0.381211
    11  H   -0.007103   0.006987  -0.005763  -0.041846  -0.020880
    12  C    0.402615   0.403804   0.371808  -0.076948  -0.018168
    13  H    0.606466  -0.025489  -0.018572  -0.001567   0.007388
    14  H   -0.025489   0.604489  -0.018872  -0.001111  -0.008257
    15  H   -0.018572  -0.018872   0.607526   0.008082  -0.007555
    16  I   -0.001567  -0.001111   0.008082  25.027578  -0.046435
    17  H    0.007388  -0.008257  -0.007555  -0.046435   0.566522
 Mulliken charges:
               1
     1  S   -0.183373
     2  C   -0.184799
     3  H    0.100763
     4  H    0.094284
     5  H    0.093429
     6  C   -0.180719
     7  H    0.099096
     8  H    0.092400
     9  H    0.092557
    10  C   -0.276868
    11  H    0.120299
    12  C   -0.077741
    13  H    0.066764
    14  H    0.067612
    15  H    0.064713
    16  I   -0.125266
    17  H    0.136849
 Sum of Mulliken charges =  -0.00000
 Mulliken charges with hydrogens summed into heavy atoms:
               1
     1  S   -0.183373
     2  C    0.103677
     6  C    0.103334
    10  C   -0.019720
    12  C    0.121348
    16  I   -0.125266
 Electronic spatial extent (au):  <R**2>=           2229.6176
 Charge=             -0.0000 electrons
 Dipole moment (field-independent basis, Debye):
    X=              2.5803    Y=              0.0546    Z=              1.4779  Tot=              2.9741
 Quadrupole moment (field-independent basis, Debye-Ang):
   XX=            -72.5153   YY=            -64.2712   ZZ=            -67.9071
   XY=             -1.3457   XZ=              6.1525   YZ=              0.8614
 Traceless Quadrupole moment (field-independent basis, Debye-Ang):
   XX=             -4.2841   YY=              3.9600   ZZ=              0.3241
   XY=             -1.3457   XZ=              6.1525   YZ=              0.8614
 Octapole moment (field-independent basis, Debye-Ang**2):
  XXX=           -109.3268  YYY=            -10.0112  ZZZ=              3.5802  XYY=            -19.0092
  XXY=             -9.6796  XXZ=             27.1754  XZZ=            -29.4808  YZZ=             -4.3609
  YYZ=              0.0436  XYZ=              3.3312
 Hexadecapole moment (field-independent basis, Debye-Ang**3):
 XXXX=          -2617.5605 YYYY=           -451.6410 ZZZZ=           -198.4905 XXXY=             31.1724
 XXXZ=             86.2341 YYYX=             15.5187 YYYZ=              3.9316 ZZZX=             -1.2896
 ZZZY=              1.7744 XXYY=           -465.3582 XXZZ=           -464.2004 YYZZ=           -105.6955
 XXYZ=              3.4036 YYXZ=             -3.4428 ZZXY=              0.7432
 N-N= 3.936052944252D+02 E-N=-2.730869044751D+03  KE= 6.674255443277D+02
   1 Symmetry operations used in ECPInt.
 ECPInt:  NShTT=    2850 NPrTT=   10580 LenC2=    2800 LenP2D=    8135.
 LDataN:  DoStor=T MaxTD1= 7 Len=  274
 D1PCM: PCM CHGder 1st derivatives, ID1Alg=3 FixD1E=F DoIter=F DoCFld=F I1PDM=0.
 Calling FoFJK, ICntrl=      2127 FMM=F ISym2X=0 I1Cent= 0 IOpClX= 0 NMat=1 NMatS=1 NMatT=0.
 Defaulting to unpruned grid for atomic number  53.
 Defaulting to unpruned grid for atomic number  53.
 Defaulting to unpruned grid for atomic number  53.
 Defaulting to unpruned grid for atomic number  53.
 Defaulting to unpruned grid for atomic number  53.
 Defaulting to unpruned grid for atomic number  53.
 Defaulting to unpruned grid for atomic number  53.
 Defaulting to unpruned grid for atomic number  53.
 Defaulting to unpruned grid for atomic number  53.
 Defaulting to unpruned grid for atomic number  53.
 Defaulting to unpruned grid for atomic number  53.
 Defaulting to unpruned grid for atomic number  53.
 Defaulting to unpruned grid for atomic number  53.
 Defaulting to unpruned grid for atomic number  53.
 Defaulting to unpruned grid for atomic number  53.
 Defaulting to unpruned grid for atomic number  53.
 Defaulting to unpruned grid for atomic number  53.
 Defaulting to unpruned grid for atomic number  53.
 Defaulting to unpruned grid for atomic number  53.
 Defaulting to unpruned grid for atomic number  53.
 Defaulting to unpruned grid for atomic number  53.
 Defaulting to unpruned grid for atomic number  53.
 Defaulting to unpruned grid for atomic number  53.
 Defaulting to unpruned grid for atomic number  53.
 ***** Axes restored to original set *****
 -------------------------------------------------------------------
 Center     Atomic                   Forces (Hartrees/Bohr)
 Number     Number              X              Y              Z
 -------------------------------------------------------------------
      1       16           0.000139525   -0.000964305   -0.001279963
      2        6           0.005631769   -0.001224944    0.001477485
      3        1          -0.000111372   -0.000621469   -0.000155388
      4        1          -0.003617037    0.000156059    0.001149083
      5        1          -0.001508240    0.001805997   -0.001286739
      6        6           0.000952539    0.002062265   -0.002826863
      7        1          -0.000234234   -0.000232289   -0.000917626
      8        1           0.002474790   -0.001119673    0.001847673
      9        1          -0.003043384    0.000283859    0.001629630
     10        6          -0.000687762   -0.001052591   -0.000549882
     11        1          -0.000051684    0.000880741    0.000522624
     12        6           0.000275539    0.000599393   -0.001440145
     13        1          -0.000026595    0.000121994    0.000391482
     14        1           0.000243022   -0.000336129   -0.000136346
     15        1          -0.000190489    0.000115502    0.000489236
     16       53          -0.000138095    0.000082036    0.000210418
     17        1          -0.000108293   -0.000556449    0.000875321
 -------------------------------------------------------------------
 Cartesian Forces:  Max     0.005631769 RMS     0.001429202

 GradGradGradGradGradGradGradGradGradGradGradGradGradGradGradGradGradGrad
 Berny optimization.
 FormGI is forming the generalized inverse of G from B-inverse, IUseBI=4.
 Internal  Forces:  Max     0.004013382 RMS     0.000884647
 Search for a local minimum.
 Step number   1 out of a maximum of   88
 All quantities printed in internal units (Hartrees-Bohrs-Radians)
 Mixed Optimization -- En-DIIS/RFO-DIIS
 Second derivative matrix not updated -- first step.
 ITU=  0
     Eigenvalues ---    0.00230   0.00285   0.00403   0.00735   0.01579
     Eigenvalues ---    0.01733   0.02249   0.04229   0.04787   0.04969
     Eigenvalues ---    0.05241   0.05574   0.06070   0.07237   0.08179
     Eigenvalues ---    0.08993   0.09317   0.10623   0.11673   0.11937
     Eigenvalues ---    0.12005   0.12236   0.12864   0.14879   0.15077
     Eigenvalues ---    0.15410   0.16000   0.16000   0.16000   0.17109
     Eigenvalues ---    0.19208   0.24863   0.25259   0.31595   0.32134
     Eigenvalues ---    0.33126   0.33298   0.33641   0.33647   0.33672
     Eigenvalues ---    0.33886   0.34034   0.34129   0.34143   0.34261
 RFO step:  Lambda=-2.94532491D-04 EMin= 2.30000000D-03
 Linear search not attempted -- first point.
 Iteration  1 RMS(Cart)=  0.03123391 RMS(Int)=  0.00039164
 Iteration  2 RMS(Cart)=  0.00056435 RMS(Int)=  0.00003112
 Iteration  3 RMS(Cart)=  0.00000013 RMS(Int)=  0.00003112
 Variable       Old X    -DE/DX   Delta X   Delta X   Delta X     New X
                                 (Linear)    (Quad)   (Total)
    R1        3.40108   0.00122   0.00000   0.00470   0.00468   3.40576
    R2        3.41063  -0.00071   0.00000  -0.00295  -0.00294   3.40769
    R3        2.07930  -0.00060   0.00000  -0.00178  -0.00178   2.07752
    R4        2.07091   0.00401   0.00000   0.01177   0.01179   2.08270
    R5        2.08831  -0.00258   0.00000  -0.00778  -0.00778   2.08054
    R6        4.44779   0.00022   0.00000   0.01258   0.01261   4.46040
    R7        2.07523   0.00092   0.00000   0.00272   0.00272   2.07795
    R8        2.07113   0.00327   0.00000   0.00957   0.00957   2.08070
    R9        2.07078   0.00389   0.00000   0.01135   0.01134   2.08213
   R10        4.45790   0.00011   0.00000   0.00889   0.00887   4.46677
   R11        2.07272  -0.00088   0.00000  -0.00259  -0.00259   2.07013
   R12        2.83900   0.00058   0.00000   0.00180   0.00180   2.84080
   R13        4.11316   0.00014   0.00000   0.00119   0.00119   4.11435
   R14        2.06891   0.00084   0.00000   0.00246   0.00246   2.07137
   R15        2.07941  -0.00025   0.00000  -0.00073  -0.00073   2.07868
   R16        2.07888  -0.00035   0.00000  -0.00103  -0.00103   2.07784
   R17        2.08531  -0.00024   0.00000  -0.00072  -0.00072   2.08459
    A1        1.74045  -0.00049   0.00000   0.00090   0.00090   1.74135
    A2        1.88155  -0.00037   0.00000  -0.00669  -0.00668   1.87487
    A3        1.94982  -0.00026   0.00000   0.00322   0.00313   1.95295
    A4        1.93315   0.00054   0.00000   0.00591   0.00591   1.93906
    A5        1.90000   0.00021   0.00000  -0.00301  -0.00299   1.89701
    A6        1.89834  -0.00033   0.00000  -0.00414  -0.00413   1.89420
    A7        1.90005   0.00020   0.00000   0.00424   0.00422   1.90427
    A8        2.14633   0.00116   0.00000   0.01088   0.01085   2.15718
    A9        1.87584  -0.00026   0.00000  -0.00317  -0.00320   1.87264
   A10        1.94148  -0.00025   0.00000  -0.00307  -0.00301   1.93847
   A11        1.94464   0.00026   0.00000   0.00672   0.00664   1.95128
   A12        1.89414   0.00029   0.00000   0.00172   0.00172   1.89585
   A13        1.89723   0.00011   0.00000  -0.00071  -0.00066   1.89657
   A14        1.90909  -0.00015   0.00000  -0.00155  -0.00156   1.90753
   A15        2.13696   0.00087   0.00000   0.01185   0.01175   2.14871
   A16        1.97983  -0.00050   0.00000  -0.00428  -0.00428   1.97555
   A17        1.81508   0.00029   0.00000   0.00403   0.00403   1.81912
   A18        1.90570   0.00029   0.00000   0.00206   0.00206   1.90776
   A19        1.96328   0.00004   0.00000   0.00015   0.00015   1.96343
   A20        1.97054   0.00007   0.00000  -0.00049  -0.00050   1.97005
   A21        1.81626  -0.00015   0.00000  -0.00079  -0.00079   1.81547
   A22        1.95195   0.00039   0.00000   0.00352   0.00352   1.95547
   A23        1.95879  -0.00046   0.00000  -0.00421  -0.00421   1.95458
   A24        1.88312   0.00021   0.00000   0.00157   0.00156   1.88468
   A25        1.89637  -0.00002   0.00000  -0.00056  -0.00056   1.89581
   A26        1.87978   0.00004   0.00000   0.00300   0.00299   1.88277
   A27        1.89127  -0.00016   0.00000  -0.00322  -0.00323   1.88805
   A28        1.22170  -0.00055   0.00000   0.00039   0.00033   1.22203
   A29        2.29771   0.00034   0.00000   0.00237   0.00241   2.30012
   A30        2.17970   0.00027   0.00000   0.00313   0.00315   2.18285
    D1        3.13418   0.00024   0.00000   0.01497   0.01498  -3.13402
    D2       -1.06221   0.00010   0.00000   0.00889   0.00890  -1.05331
    D3        1.05918   0.00055   0.00000   0.02067   0.02070   1.07988
    D4        3.08766  -0.00009   0.00000   0.00355   0.00347   3.09113
    D5       -1.12434  -0.00004   0.00000   0.00193   0.00189  -1.12245
    D6        1.01090  -0.00021   0.00000   0.00251   0.00244   1.01334
    D7       -0.21392   0.00027   0.00000  -0.00102  -0.00099  -0.21491
    D8        1.86195  -0.00021   0.00000  -0.00928  -0.00927   1.85268
    D9       -2.35433  -0.00038   0.00000  -0.01355  -0.01354  -2.36787
   D10        1.11539  -0.00061   0.00000  -0.01062  -0.01064   1.10475
   D11       -0.96847  -0.00055   0.00000  -0.01534  -0.01535  -0.98383
   D12        0.29152  -0.00000   0.00000  -0.01474  -0.01483   0.27669
   D13       -1.77244   0.00010   0.00000  -0.01439  -0.01444  -1.78688
   D14        2.44531  -0.00024   0.00000  -0.01516  -0.01523   2.43008
   D15       -1.16985   0.00028   0.00000   0.02208   0.02204  -1.14781
   D16        1.05494   0.00039   0.00000   0.02545   0.02544   1.08038
   D17        0.99555   0.00016   0.00000   0.00347   0.00347   0.99903
   D18        3.13209   0.00009   0.00000   0.00225   0.00224   3.13433
   D19       -1.06868  -0.00025   0.00000  -0.00324  -0.00325  -1.07193
   D20       -1.05859   0.00010   0.00000   0.00113   0.00113  -1.05746
   D21        1.07794   0.00003   0.00000  -0.00010  -0.00010   1.07784
   D22       -3.12283  -0.00031   0.00000  -0.00559  -0.00559  -3.12842
   D23       -3.10785   0.00021   0.00000   0.00237   0.00238  -3.10547
   D24       -0.97131   0.00014   0.00000   0.00115   0.00115  -0.97017
   D25        1.11110  -0.00020   0.00000  -0.00434  -0.00434   1.10676
   D26        1.59512  -0.00030   0.00000   0.04194   0.04193   1.63705
   D27       -0.03781   0.00003   0.00000   0.03662   0.03663  -0.00118
   D28       -0.62443   0.00006   0.00000   0.04635   0.04634  -0.57809
   D29       -2.25736   0.00040   0.00000   0.04103   0.04104  -2.21632
   D30       -2.75842   0.00007   0.00000   0.04696   0.04695  -2.71148
   D31        1.89183   0.00040   0.00000   0.04164   0.04165   1.93348
         Item               Value     Threshold  Converged?
 Maximum Force            0.004013     0.000450     NO 
 RMS     Force            0.000885     0.000300     NO 
 Maximum Displacement     0.103626     0.001800     NO 
 RMS     Displacement     0.031294     0.001200     NO 
 Predicted change in Energy=-1.499418D-04
 GradGradGradGradGradGradGradGradGradGradGradGradGradGradGradGradGradGrad

                          Input orientation:                          
 ---------------------------------------------------------------------
 Center     Atomic      Atomic             Coordinates (Angstroms)
 Number     Number       Type             X           Y           Z
 ---------------------------------------------------------------------
      1         16           0        3.655793   -0.060959   -0.537323
      2          6           0        3.765573    0.703698    1.090977
      3          1           0        4.030939    1.760022    0.941356
      4          1           0        2.807806    0.653638    1.633965
      5          1           0        4.550282    0.228658    1.699837
      6          6           0        3.208495   -1.740590   -0.057162
      7          1           0        3.056103   -2.315382   -0.982107
      8          1           0        4.015635   -2.214723    0.522537
      9          1           0        2.276486   -1.763829    0.530045
     10          6           0        0.222701    0.463049   -0.237310
     11          1           0        0.496481   -0.094422   -1.139703
     12          6           0        0.403836    1.948417   -0.381337
     13          1           0       -0.172657    2.354621   -1.225513
     14          1           0        0.116668    2.488692    0.532251
     15          1           0        1.471976    2.144045   -0.575449
     16         53           0       -1.851006   -0.091945    0.126004
     17          1           0        0.762788    0.049284    0.622100
 ---------------------------------------------------------------------
                    Distance matrix (angstroms):
                    1          2          3          4          5
     1  S    0.000000
     2  C    1.802252   0.000000
     3  H    2.375542   1.099375   0.000000
     4  H    2.438078   1.102116   1.788812   0.000000
     5  H    2.426700   1.100974   1.786082   1.794762   0.000000
     6  C    1.803273   2.757373   3.731989   2.958512   2.960638
     7  H    2.374844   3.730398   4.610742   3.964917   3.987171
     8  H    2.427240   2.983763   3.996780   3.304787   2.764416
     9  H    2.437525   2.936105   3.957880   2.710182   3.241692
    10  C    3.485787   3.791332   4.192144   3.196993   4.747150
    11  H    3.216401   4.037313   4.501352   3.687147   4.959907
    12  C    3.825852   3.875346   3.865344   3.393666   4.947916
    13  H    4.578828   4.858120   4.766455   4.466892   5.948407
    14  H    4.491115   4.100352   4.002480   3.438520   5.111550
    15  H    3.103635   3.179962   2.999410   2.981151   4.280374
    16  I    5.546693   5.754145   6.220279   4.953218   6.599714
    17  H    3.118636   3.108829   3.702615   2.360342   3.941929
                    6          7          8          9         10
     6  C    0.000000
     7  H    1.099605   0.000000
     8  H    1.101058   1.787397   0.000000
     9  H    1.101814   1.788468   1.796664   0.000000
    10  C    3.715298   4.037644   4.704697   3.125036   0.000000
    11  H    3.352131   3.392516   4.432061   2.956923   1.095465
    12  C    4.645425   5.057215   5.585142   4.256548   1.503287
    13  H    5.437645   5.682699   6.440216   5.103128   2.170460
    14  H    5.271966   5.832040   6.109350   4.769565   2.169492
    15  H    4.286550   4.749876   5.164749   4.140149   2.121503
    16  I    5.324484   5.500119   6.251472   4.471536   2.177218
    17  H    3.105886   3.663935   3.964424   2.363712   1.096121
                   11         12         13         14         15
    11  H    0.000000
    12  C    2.181031   0.000000
    13  H    2.540260   1.099991   0.000000
    14  H    3.100350   1.099548   1.786454   0.000000
    15  H    2.506135   1.103120   1.780940   1.783996   0.000000
    16  I    2.666968   3.082983   3.260236   3.270545   4.066190
    17  H    1.787602   2.177714   3.098921   2.525125   2.514974
                   16         17
    16  I    0.000000
    17  H    2.664203   0.000000
 Stoichiometry    C4H11IS
 Framework group  C1[X(C4H11IS)]
 Deg. of freedom    45
 Full point group                 C1      NOp   1
 Largest Abelian subgroup         C1      NOp   1
 Largest concise Abelian subgroup C1      NOp   1
                         Standard orientation:                         
 ---------------------------------------------------------------------
 Center     Atomic      Atomic             Coordinates (Angstroms)
 Number     Number       Type             X           Y           Z
 ---------------------------------------------------------------------
      1         16           0        3.381149   -0.021322   -0.529328
      2          6           0        3.450564    0.754584    1.095868
      3          1           0        3.687102    1.817332    0.943405
      4          1           0        2.488586    0.679744    1.628463
      5          1           0        4.241715    0.305513    1.715995
      6          6           0        2.976978   -1.710646   -0.044948
      7          1           0        2.851598   -2.294363   -0.968359
      8          1           0        3.790850   -2.158315    0.546265
      9          1           0        2.039476   -1.757705    0.532000
     10          6           0       -0.068753    0.405053   -0.270307
     11          1           0        0.231083   -0.148950   -1.166533
     12          6           0        0.071189    1.894261   -0.420465
     13          1           0       -0.507218    2.279312   -1.273202
     14          1           0       -0.241660    2.430747    0.486901
     15          1           0        1.135376    2.119592   -0.603784
     16         53           0       -2.129594   -0.207599    0.073017
     17          1           0        0.473311    0.011474    0.597301
 ---------------------------------------------------------------------
 Rotational constants (GHZ):           3.0898758           0.3956494           0.3707110
 Standard basis: def2SVP (5D, 7F)
 There are   162 symmetry adapted cartesian basis functions of A   symmetry.
 There are   155 symmetry adapted basis functions of A   symmetry.
   155 basis functions,   281 primitive gaussians,   162 cartesian basis functions
    38 alpha electrons       38 beta electrons
       nuclear repulsion energy       392.3255065036 Hartrees.
 NAtoms=   17 NActive=   17 NUniq=   17 SFac= 1.00D+00 NAtFMM=   60 NAOKFM=F Big=F
 Integral buffers will be    131072 words long.
 Raffenetti 2 integral format.
 Two-electron integral symmetry is turned on.
 Nuclear repulsion after empirical dispersion term =      392.3118161613 Hartrees.
 ------------------------------------------------------------------------------
 Polarizable Continuum Model (PCM)
 =================================
 Model                : PCM.
 Atomic radii         : SMD-Coulomb.
 Polarization charges : Total charges.
 Charge compensation  : None.
 Solution method      : On-the-fly selection.
 Cavity type          : VdW (van der Waals Surface) (Alpha=1.000).
 Cavity algorithm     : GePol (No added spheres)
                        Default sphere list used, NSphG=   17.
                        Lebedev-Laikov grids with approx.  5.0 points / Ang**2.
                        Smoothing algorithm: York/Karplus (Gamma=1.0000).
                        Polarization charges: spherical gaussians, with
                                              point-specific exponents (IZeta= 3).
                        Self-potential: point-specific (ISelfS= 7).
                        Self-field    : sphere-specific E.n sum rule (ISelfD= 2).
 1st derivatives      : Analytical E(r).r(x)/FMM algorithm (CHGder, D1EAlg=3).
                        Cavity 1st derivative terms included.
 Solvent              : Water, Eps=  78.355300 Eps(inf)=   1.777849
 ------------------------------------------------------------------------------
 Spheres list:
 ISph  on   Nord     Re0    Alpha      Xe            Ye            Ze
    1   S      1    2.4900  1.000      3.381149     -0.021322     -0.529328
    2   C      2    1.8500  1.000      3.450564      0.754584      1.095868
    3   H      3    1.2000  1.000      3.687102      1.817332      0.943405
    4   H      4    1.2000  1.000      2.488586      0.679744      1.628463
    5   H      5    1.2000  1.000      4.241715      0.305513      1.715995
    6   C      6    1.8500  1.000      2.976978     -1.710646     -0.044948
    7   H      7    1.2000  1.000      2.851598     -2.294363     -0.968359
    8   H      8    1.2000  1.000      3.790850     -2.158315      0.546265
    9   H      9    1.2000  1.000      2.039476     -1.757705      0.532000
   10   C     10    1.8500  1.000     -0.068753      0.405053     -0.270307
   11   H     11    1.2000  1.000      0.231083     -0.148950     -1.166533
   12   C     12    1.8500  1.000      0.071189      1.894261     -0.420465
   13   H     13    1.2000  1.000     -0.507218      2.279312     -1.273202
   14   H     14    1.2000  1.000     -0.241660      2.430747      0.486901
   15   H     15    1.2000  1.000      1.135376      2.119592     -0.603784
   16   I     16    1.9800  1.000     -2.129594     -0.207599      0.073017
   17   H     17    1.2000  1.000      0.473311      0.011474      0.597301
 ------------------------------------------------------------------------------
 ------------------------------------------------------------------------------
 Atomic radii for non-electrostatic terms: SMD-CDS.
 ------------------------------------------------------------------------------
 Nuclear repulsion after PCM non-electrostatic terms =      392.3181625866 Hartrees.
 One-electron integrals computed using PRISM.
   1 Symmetry operations used in ECPInt.
 ECPInt:  NShTT=    2850 NPrTT=   10580 LenC2=    2797 LenP2D=    8130.
 LDataN:  DoStor=T MaxTD1= 6 Len=  172
 NBasis=   155 RedAO= T EigKep=  3.68D-03  NBF=   155
 NBsUse=   155 1.00D-06 EigRej= -1.00D+00 NBFU=   155
 Defaulting to unpruned grid for atomic number  53.
 Initial guess from the checkpoint file:  "/scratch/yang_lab/shaoqz//36121964/Gau-184043.chk"
 B after Tr=    -0.000000   -0.000000   -0.000000
         Rot=    0.999999    0.000620    0.001002   -0.000683 Ang=   0.16 deg.
 ExpMin= 1.11D-01 ExpMax= 9.18D+03 ExpMxC= 1.38D+03 IAcc=3 IRadAn=         5 AccDes= 0.00D+00
 Harris functional with IExCor= 1009 and IRadAn=       5 diagonalized for initial guess.
 HarFok:  IExCor= 1009 AccDes= 0.00D+00 IRadAn=         5 IDoV= 1 UseB2=F ITyADJ=14
 ICtDFT=  3500011 ScaDFX=  1.000000  1.000000  1.000000  1.000000
 Defaulting to unpruned grid for atomic number  53.
 FoFCou: FMM=F IPFlag=           0 FMFlag=      100000 FMFlg1=           0
         NFxFlg=           0 DoJE=T BraDBF=F KetDBF=T FulRan=T
         wScrn=  0.000000 ICntrl=       500 IOpCl=  0 I1Cent=   200000004 NGrid=           0
         NMat0=    1 NMatS0=      1 NMatT0=    0 NMatD0=    1 NMtDS0=    0 NMtDT0=    0
 Petite list used in FoFCou.
 Requested convergence on RMS density matrix=1.00D-08 within 128 cycles.
 Requested convergence on MAX density matrix=1.00D-06.
 Requested convergence on             energy=1.00D-06.
 No special actions if energy rises.
 Defaulting to unpruned grid for atomic number  53.
 Defaulting to unpruned grid for atomic number  53.
 Defaulting to unpruned grid for atomic number  53.
 Defaulting to unpruned grid for atomic number  53.
 Defaulting to unpruned grid for atomic number  53.
 Defaulting to unpruned grid for atomic number  53.
 Defaulting to unpruned grid for atomic number  53.
 Defaulting to unpruned grid for atomic number  53.
 Defaulting to unpruned grid for atomic number  53.
 Defaulting to unpruned grid for atomic number  53.
 Defaulting to unpruned grid for atomic number  53.
 Defaulting to unpruned grid for atomic number  53.
 Defaulting to unpruned grid for atomic number  53.
 Defaulting to unpruned grid for atomic number  53.
 Defaulting to unpruned grid for atomic number  53.
 Defaulting to unpruned grid for atomic number  53.
 Defaulting to unpruned grid for atomic number  53.
 Defaulting to unpruned grid for atomic number  53.
 Defaulting to unpruned grid for atomic number  53.
 Defaulting to unpruned grid for atomic number  53.
 Defaulting to unpruned grid for atomic number  53.
 Defaulting to unpruned grid for atomic number  53.
 Defaulting to unpruned grid for atomic number  53.
 Defaulting to unpruned grid for atomic number  53.
 Inv3:  Mode=1 IEnd=     6553452.
 Iteration    1 A*A^-1 deviation from unit magnitude is 2.89D-15 for    364.
 Iteration    1 A*A^-1 deviation from orthogonality  is 1.94D-15 for    922    389.
 Iteration    1 A^-1*A deviation from unit magnitude is 2.89D-15 for    364.
 Iteration    1 A^-1*A deviation from orthogonality  is 1.27D-15 for    642    258.
 Error on total polarization charges =  0.06134
 SCF Done:  E(RPBE1PBE) =  -854.381972467     A.U. after    9 cycles
            NFock=  9  Conv=0.95D-08     -V/T= 2.2802
 SMD-CDS (non-electrostatic) energy       (kcal/mol) =       3.98
 (included in total energy above)
   1 Symmetry operations used in ECPInt.
 ECPInt:  NShTT=    2850 NPrTT=   10580 LenC2=    2797 LenP2D=    8130.
 LDataN:  DoStor=T MaxTD1= 7 Len=  274
 D1PCM: PCM CHGder 1st derivatives, ID1Alg=3 FixD1E=F DoIter=F DoCFld=F I1PDM=0.
 Calling FoFJK, ICntrl=      2127 FMM=F ISym2X=0 I1Cent= 0 IOpClX= 0 NMat=1 NMatS=1 NMatT=0.
 Defaulting to unpruned grid for atomic number  53.
 Defaulting to unpruned grid for atomic number  53.
 Defaulting to unpruned grid for atomic number  53.
 Defaulting to unpruned grid for atomic number  53.
 Defaulting to unpruned grid for atomic number  53.
 Defaulting to unpruned grid for atomic number  53.
 Defaulting to unpruned grid for atomic number  53.
 Defaulting to unpruned grid for atomic number  53.
 Defaulting to unpruned grid for atomic number  53.
 Defaulting to unpruned grid for atomic number  53.
 Defaulting to unpruned grid for atomic number  53.
 Defaulting to unpruned grid for atomic number  53.
 Defaulting to unpruned grid for atomic number  53.
 Defaulting to unpruned grid for atomic number  53.
 Defaulting to unpruned grid for atomic number  53.
 Defaulting to unpruned grid for atomic number  53.
 Defaulting to unpruned grid for atomic number  53.
 Defaulting to unpruned grid for atomic number  53.
 Defaulting to unpruned grid for atomic number  53.
 Defaulting to unpruned grid for atomic number  53.
 Defaulting to unpruned grid for atomic number  53.
 Defaulting to unpruned grid for atomic number  53.
 Defaulting to unpruned grid for atomic number  53.
 Defaulting to unpruned grid for atomic number  53.
 ***** Axes restored to original set *****
 -------------------------------------------------------------------
 Center     Atomic                   Forces (Hartrees/Bohr)
 Number     Number              X              Y              Z
 -------------------------------------------------------------------
      1       16          -0.000627598   -0.000264597    0.000255453
      2        6           0.000465103    0.000068563    0.000930990
      3        1          -0.000062713    0.000188754   -0.000072030
      4        1          -0.000006355   -0.000083535   -0.001062446
      5        1           0.000044900   -0.000009385   -0.000001206
      6        6           0.000402990   -0.000385378    0.000087257
      7        1          -0.000031165   -0.000066009    0.000051963
      8        1          -0.000181424   -0.000048154    0.000062107
      9        1           0.000256241    0.000719295   -0.000575951
     10        6          -0.000256961   -0.000070430    0.000472223
     11        1           0.000042464   -0.000145254   -0.000251434
     12        6           0.000074168    0.000239182   -0.000332745
     13        1          -0.000076432   -0.000055504    0.000104230
     14        1           0.000006995    0.000084795    0.000106263
     15        1          -0.000031289   -0.000079018    0.000147513
     16       53           0.000356010    0.000127731   -0.000047703
     17        1          -0.000374934   -0.000221056    0.000125516
 -------------------------------------------------------------------
 Cartesian Forces:  Max     0.001062446 RMS     0.000314716

 GradGradGradGradGradGradGradGradGradGradGradGradGradGradGradGradGradGrad
 Berny optimization.
 Using GEDIIS/GDIIS optimizer.
 FormGI is forming the generalized inverse of G from B-inverse, IUseBI=4.
 Internal  Forces:  Max     0.000772496 RMS     0.000205692
 Search for a local minimum.
 Step number   2 out of a maximum of   88
 All quantities printed in internal units (Hartrees-Bohrs-Radians)
 Mixed Optimization -- En-DIIS/RFO-DIIS
 Swapping is turned off.
 Update second derivatives using D2CorX and points    1    2
 DE= -1.53D-04 DEPred=-1.50D-04 R= 1.02D+00
 TightC=F SS=  1.41D+00  RLast= 1.24D-01 DXNew= 5.0454D-01 3.7238D-01
 Trust test= 1.02D+00 RLast= 1.24D-01 DXMaxT set to 3.72D-01
 ITU=  1  0
     Eigenvalues ---    0.00226   0.00277   0.00395   0.00735   0.01563
     Eigenvalues ---    0.01741   0.02206   0.04249   0.04706   0.04962
     Eigenvalues ---    0.05081   0.05579   0.05999   0.07126   0.08198
     Eigenvalues ---    0.09006   0.09238   0.10563   0.11699   0.11980
     Eigenvalues ---    0.12054   0.12310   0.12462   0.14672   0.14937
     Eigenvalues ---    0.15176   0.15999   0.16000   0.16077   0.17105
     Eigenvalues ---    0.19469   0.24833   0.25214   0.31603   0.32065
     Eigenvalues ---    0.33131   0.33291   0.33621   0.33649   0.33668
     Eigenvalues ---    0.33879   0.33977   0.34113   0.34250   0.38751
 En-DIIS/RFO-DIIS/Sim-DIIS IScMMF=       -3 using points:     2    1
 RFO step:  Lambda=-3.66923055D-05.
 DidBck=F Rises=F RFO-DIIS coefs:    1.37751   -0.37751
 Iteration  1 RMS(Cart)=  0.01198084 RMS(Int)=  0.00009293
 Iteration  2 RMS(Cart)=  0.00010931 RMS(Int)=  0.00003255
 Iteration  3 RMS(Cart)=  0.00000001 RMS(Int)=  0.00003255
 Variable       Old X    -DE/DX   Delta X   Delta X   Delta X     New X
                                 (Linear)    (Quad)   (Total)
    R1        3.40576   0.00012   0.00177  -0.00113   0.00063   3.40639
    R2        3.40769  -0.00019  -0.00111  -0.00050  -0.00161   3.40608
    R3        2.07752   0.00018  -0.00067   0.00103   0.00036   2.07787
    R4        2.08270  -0.00033   0.00445  -0.00412   0.00036   2.08306
    R5        2.08054   0.00003  -0.00294   0.00214  -0.00079   2.07975
    R6        4.46040  -0.00002   0.00476  -0.00046   0.00433   4.46473
    R7        2.07795  -0.00001   0.00103  -0.00073   0.00030   2.07825
    R8        2.08070  -0.00008   0.00361  -0.00275   0.00087   2.08157
    R9        2.08213  -0.00034   0.00428  -0.00400   0.00025   2.08238
   R10        4.46677  -0.00002   0.00335   0.00250   0.00583   4.47260
   R11        2.07013   0.00029  -0.00098   0.00160   0.00062   2.07075
   R12        2.84080   0.00018   0.00068   0.00012   0.00081   2.84161
   R13        4.11435  -0.00038   0.00045  -0.00379  -0.00334   4.11101
   R14        2.07137  -0.00017   0.00093  -0.00117  -0.00024   2.07113
   R15        2.07868  -0.00006  -0.00027   0.00000  -0.00027   2.07841
   R16        2.07784   0.00013  -0.00039   0.00067   0.00028   2.07813
   R17        2.08459  -0.00007  -0.00027  -0.00004  -0.00031   2.08428
    A1        1.74135   0.00036   0.00034   0.00098   0.00131   1.74265
    A2        1.87487   0.00017  -0.00252   0.00186  -0.00066   1.87420
    A3        1.95295  -0.00060   0.00118  -0.00580  -0.00468   1.94827
    A4        1.93906   0.00011   0.00223   0.00008   0.00232   1.94138
    A5        1.89701   0.00007  -0.00113   0.00058  -0.00054   1.89647
    A6        1.89420   0.00004  -0.00156   0.00259   0.00103   1.89523
    A7        1.90427   0.00022   0.00159   0.00096   0.00255   1.90683
    A8        2.15718   0.00077   0.00410   0.00273   0.00680   2.16398
    A9        1.87264   0.00022  -0.00121   0.00203   0.00083   1.87347
   A10        1.93847   0.00029  -0.00113   0.00305   0.00197   1.94044
   A11        1.95128  -0.00053   0.00251  -0.00505  -0.00266   1.94862
   A12        1.89585  -0.00001   0.00065   0.00016   0.00080   1.89666
   A13        1.89657   0.00002  -0.00025   0.00003  -0.00016   1.89641
   A14        1.90753   0.00002  -0.00059  -0.00012  -0.00071   1.90683
   A15        2.14871   0.00075   0.00443   0.00439   0.00868   2.15738
   A16        1.97555   0.00001  -0.00162   0.00137  -0.00024   1.97530
   A17        1.81912   0.00001   0.00152  -0.00090   0.00062   1.81974
   A18        1.90776   0.00004   0.00078   0.00004   0.00081   1.90857
   A19        1.96343  -0.00003   0.00006  -0.00047  -0.00041   1.96302
   A20        1.97005  -0.00003  -0.00019  -0.00018  -0.00036   1.96968
   A21        1.81547   0.00001  -0.00030  -0.00003  -0.00033   1.81515
   A22        1.95547  -0.00005   0.00133  -0.00107   0.00025   1.95572
   A23        1.95458   0.00005  -0.00159   0.00114  -0.00045   1.95413
   A24        1.88468  -0.00010   0.00059  -0.00103  -0.00044   1.88424
   A25        1.89581  -0.00001  -0.00021   0.00000  -0.00021   1.89560
   A26        1.88277   0.00014   0.00113   0.00072   0.00184   1.88462
   A27        1.88805  -0.00002  -0.00122   0.00026  -0.00096   1.88709
   A28        1.22203  -0.00015   0.00012   0.00136   0.00142   1.22344
   A29        2.30012  -0.00010   0.00091  -0.00234  -0.00140   2.29872
   A30        2.18285   0.00017   0.00119   0.00130   0.00253   2.18539
    D1       -3.13402   0.00012   0.00566  -0.00355   0.00212  -3.13190
    D2       -1.05331  -0.00004   0.00336  -0.00504  -0.00167  -1.05499
    D3        1.07988  -0.00009   0.00781  -0.00786  -0.00004   1.07984
    D4        3.09113  -0.00003   0.00131   0.01488   0.01612   3.10725
    D5       -1.12245   0.00026   0.00071   0.01803   0.01872  -1.10373
    D6        1.01334   0.00012   0.00092   0.01649   0.01733   1.03067
    D7       -0.21491  -0.00012  -0.00037  -0.00183  -0.00219  -0.21710
    D8        1.85268  -0.00023  -0.00350  -0.00266  -0.00615   1.84653
    D9       -2.36787  -0.00001  -0.00511   0.00133  -0.00377  -2.37164
   D10        1.10475  -0.00021  -0.00402   0.00023  -0.00380   1.10094
   D11       -0.98383  -0.00030  -0.00580  -0.00243  -0.00824  -0.99207
   D12        0.27669   0.00000  -0.00560  -0.01730  -0.02296   0.25373
   D13       -1.78688   0.00004  -0.00545  -0.01680  -0.02229  -1.80917
   D14        2.43008   0.00002  -0.00575  -0.01694  -0.02276   2.40732
   D15       -1.14781   0.00023   0.00832   0.01301   0.02134  -1.12647
   D16        1.08038   0.00004   0.00960   0.01107   0.02069   1.10107
   D17        0.99903   0.00002   0.00131  -0.00024   0.00108   1.00010
   D18        3.13433   0.00001   0.00085  -0.00018   0.00066   3.13500
   D19       -1.07193  -0.00006  -0.00123   0.00017  -0.00106  -1.07299
   D20       -1.05746   0.00002   0.00043   0.00030   0.00073  -1.05673
   D21        1.07784   0.00001  -0.00004   0.00036   0.00032   1.07816
   D22       -3.12842  -0.00005  -0.00211   0.00070  -0.00141  -3.12983
   D23       -3.10547   0.00005   0.00090   0.00078   0.00168  -3.10379
   D24       -0.97017   0.00004   0.00043   0.00084   0.00127  -0.96890
   D25        1.10676  -0.00002  -0.00164   0.00118  -0.00046   1.10630
   D26        1.63705  -0.00007   0.01583  -0.00251   0.01329   1.65035
   D27       -0.00118   0.00009   0.01383  -0.00405   0.00980   0.00862
   D28       -0.57809  -0.00009   0.01749  -0.00422   0.01325  -0.56484
   D29       -2.21632   0.00007   0.01549  -0.00576   0.00975  -2.20657
   D30       -2.71148  -0.00003   0.01772  -0.00353   0.01417  -2.69730
   D31        1.93348   0.00012   0.01572  -0.00507   0.01067   1.94415
         Item               Value     Threshold  Converged?
 Maximum Force            0.000772     0.000450     NO 
 RMS     Force            0.000206     0.000300     YES
 Maximum Displacement     0.053578     0.001800     NO 
 RMS     Displacement     0.011970     0.001200     NO 
 Predicted change in Energy=-1.846577D-05
 GradGradGradGradGradGradGradGradGradGradGradGradGradGradGradGradGradGrad

                          Input orientation:                          
 ---------------------------------------------------------------------
 Center     Atomic      Atomic             Coordinates (Angstroms)
 Number     Number       Type             X           Y           Z
 ---------------------------------------------------------------------
      1         16           0        3.659971   -0.063154   -0.536736
      2          6           0        3.765112    0.703630    1.091240
      3          1           0        4.025358    1.761202    0.940068
      4          1           0        2.803980    0.650229    1.628319
      5          1           0        4.549525    0.233351    1.703410
      6          6           0        3.217285   -1.743497   -0.057992
      7          1           0        3.084456   -2.323620   -0.982811
      8          1           0        4.016091   -2.210562    0.539586
      9          1           0        2.274778   -1.768729    0.512390
     10          6           0        0.214220    0.463722   -0.239083
     11          1           0        0.477664   -0.093342   -1.145194
     12          6           0        0.404972    1.948541   -0.380777
     13          1           0       -0.175333    2.361345   -1.218930
     14          1           0        0.128721    2.488126    0.536757
     15          1           0        1.473180    2.136621   -0.580950
     16         53           0       -1.859169   -0.076049    0.138137
     17          1           0        0.757088    0.044462    0.615736
 ---------------------------------------------------------------------
                    Distance matrix (angstroms):
                    1          2          3          4          5
     1  S    0.000000
     2  C    1.802587   0.000000
     3  H    2.375444   1.099563   0.000000
     4  H    2.434974   1.102307   1.788776   0.000000
     5  H    2.428472   1.100554   1.786553   1.796206   0.000000
     6  C    1.802420   2.758493   3.732563   2.957091   2.964006
     7  H    2.374849   3.732188   4.611782   3.967423   3.987519
     8  H    2.428302   2.976547   3.991915   3.292215   2.758940
     9  H    2.434832   2.944269   3.963313   2.716009   3.255968
    10  C    3.498484   3.799493   4.195072   3.198254   4.756177
    11  H    3.240094   4.055135   4.513733   3.695540   4.980093
    12  C    3.829656   3.873910   3.858358   3.387820   4.946013
    13  H    4.588370   4.859219   4.761014   4.462180   5.949178
    14  H    4.486774   4.088424   3.984327   3.424381   5.097902
    15  H    3.102099   3.178464   2.994670   2.976787   4.278392
    16  I    5.560262   5.757503   6.216611   4.949048   6.604330
    17  H    3.125140   3.115897   3.705938   2.362635   3.949847
                    6          7          8          9         10
     6  C    0.000000
     7  H    1.099762   0.000000
     8  H    1.101518   1.788412   0.000000
     9  H    1.101948   1.788605   1.796699   0.000000
    10  C    3.731354   4.069479   4.712997   3.129608   0.000000
    11  H    3.377949   3.434512   4.454388   2.963802   1.095792
    12  C    4.652359   5.078725   5.584388   4.255822   1.503713
    13  H    5.450446   5.712344   6.446918   5.104706   2.170904
    14  H    5.272531   5.847936   6.098305   4.767281   2.169666
    15  H    4.286106   4.759354   5.159457   4.133970   2.121425
    16  I    5.346889   5.545045   6.263863   4.482716   2.175452
    17  H    3.115008   3.685079   3.963841   2.366796   1.095993
                   11         12         13         14         15
    11  H    0.000000
    12  C    2.181492   0.000000
    13  H    2.541128   1.099846   0.000000
    14  H    3.100758   1.099697   1.786326   0.000000
    15  H    2.506423   1.102956   1.781885   1.783365   0.000000
    16  I    2.666088   3.081326   3.258501   3.268884   4.064178
    17  H    1.788279   2.177738   3.098928   2.524396   2.514353
                   16         17
    16  I    0.000000
    17  H    2.662222   0.000000
 Stoichiometry    C4H11IS
 Framework group  C1[X(C4H11IS)]
 Deg. of freedom    45
 Full point group                 C1      NOp   1
 Largest Abelian subgroup         C1      NOp   1
 Largest concise Abelian subgroup C1      NOp   1
                         Standard orientation:                         
 ---------------------------------------------------------------------
 Center     Atomic      Atomic             Coordinates (Angstroms)
 Number     Number       Type             X           Y           Z
 ---------------------------------------------------------------------
      1         16           0        3.390437   -0.017861   -0.526699
      2          6           0        3.448433    0.759163    1.098782
      3          1           0        3.676231    1.823961    0.945968
      4          1           0        2.482315    0.676901    1.623120
      5          1           0        4.239293    0.317381    1.723753
      6          6           0        2.996075   -1.709575   -0.045763
      7          1           0        2.894767   -2.297816   -0.969444
      8          1           0        3.801414   -2.147741    0.564795
      9          1           0        2.047202   -1.762928    0.511987
     10          6           0       -0.074342    0.397930   -0.278067
     11          1           0        0.219373   -0.154286   -1.177816
     12          6           0        0.069999    1.887526   -0.424426
     13          1           0       -0.511934    2.277501   -1.272327
     14          1           0       -0.236103    2.421907    0.486657
     15          1           0        1.134164    2.109374   -0.611107
     16         53           0       -2.134054   -0.207342    0.073819
     17          1           0        0.470160    0.000358    0.586025
 ---------------------------------------------------------------------
 Rotational constants (GHZ):           3.0955220           0.3938285           0.3692631
 Standard basis: def2SVP (5D, 7F)
 There are   162 symmetry adapted cartesian basis functions of A   symmetry.
 There are   155 symmetry adapted basis functions of A   symmetry.
   155 basis functions,   281 primitive gaussians,   162 cartesian basis functions
    38 alpha electrons       38 beta electrons
       nuclear repulsion energy       392.0306737303 Hartrees.
 NAtoms=   17 NActive=   17 NUniq=   17 SFac= 1.00D+00 NAtFMM=   60 NAOKFM=F Big=F
 Integral buffers will be    131072 words long.
 Raffenetti 2 integral format.
 Two-electron integral symmetry is turned on.
 Nuclear repulsion after empirical dispersion term =      392.0170082721 Hartrees.
 ------------------------------------------------------------------------------
 Polarizable Continuum Model (PCM)
 =================================
 Model                : PCM.
 Atomic radii         : SMD-Coulomb.
 Polarization charges : Total charges.
 Charge compensation  : None.
 Solution method      : On-the-fly selection.
 Cavity type          : VdW (van der Waals Surface) (Alpha=1.000).
 Cavity algorithm     : GePol (No added spheres)
                        Default sphere list used, NSphG=   17.
                        Lebedev-Laikov grids with approx.  5.0 points / Ang**2.
                        Smoothing algorithm: York/Karplus (Gamma=1.0000).
                        Polarization charges: spherical gaussians, with
                                              point-specific exponents (IZeta= 3).
                        Self-potential: point-specific (ISelfS= 7).
                        Self-field    : sphere-specific E.n sum rule (ISelfD= 2).
 1st derivatives      : Analytical E(r).r(x)/FMM algorithm (CHGder, D1EAlg=3).
                        Cavity 1st derivative terms included.
 Solvent              : Water, Eps=  78.355300 Eps(inf)=   1.777849
 ------------------------------------------------------------------------------
 Spheres list:
 ISph  on   Nord     Re0    Alpha      Xe            Ye            Ze
    1   S      1    2.4900  1.000      3.390437     -0.017861     -0.526699
    2   C      2    1.8500  1.000      3.448433      0.759163      1.098782
    3   H      3    1.2000  1.000      3.676231      1.823961      0.945968
    4   H      4    1.2000  1.000      2.482315      0.676901      1.623120
    5   H      5    1.2000  1.000      4.239293      0.317381      1.723753
    6   C      6    1.8500  1.000      2.996075     -1.709575     -0.045763
    7   H      7    1.2000  1.000      2.894767     -2.297816     -0.969444
    8   H      8    1.2000  1.000      3.801414     -2.147741      0.564795
    9   H      9    1.2000  1.000      2.047202     -1.762928      0.511987
   10   C     10    1.8500  1.000     -0.074342      0.397930     -0.278067
   11   H     11    1.2000  1.000      0.219373     -0.154286     -1.177816
   12   C     12    1.8500  1.000      0.069999      1.887526     -0.424426
   13   H     13    1.2000  1.000     -0.511934      2.277501     -1.272327
   14   H     14    1.2000  1.000     -0.236103      2.421907      0.486657
   15   H     15    1.2000  1.000      1.134164      2.109374     -0.611107
   16   I     16    1.9800  1.000     -2.134054     -0.207342      0.073819
   17   H     17    1.2000  1.000      0.470160      0.000358      0.586025
 ------------------------------------------------------------------------------
 ------------------------------------------------------------------------------
 Atomic radii for non-electrostatic terms: SMD-CDS.
 ------------------------------------------------------------------------------
 Nuclear repulsion after PCM non-electrostatic terms =      392.0233742640 Hartrees.
[...]
   xx         0.114592D+03      0.169807D+02      0.188936D+02
   yx         0.657965D+01      0.975004D+00      0.108484D+01
   yy         0.120857D+03      0.179091D+02      0.199266D+02
   zx         0.158209D+02      0.234442D+01      0.260851D+01
   zy         0.145675D+02      0.215867D+01      0.240185D+01
   zz         0.123346D+03      0.182780D+02      0.203370D+02

 ----------------------------------------------------------------------
 1\1\GINC-CN1537\Freq\RPBE1PBE\def2SVP\C4H11I1S1\SHAOQ1\18-Dec-2021\0\\
 #N Geom=AllCheck Guess=TCheck SCRF=Check GenChk RPBE1PBE/def2SVP Freq\
 \Title Card Required\\0,1\S,3.715636966,-0.0787831006,-0.5735556509\C,
 3.7712298398,0.7210405241,1.0415292851\H,4.060287325,1.7695998202,0.88
 00595707\H,2.7867143811,0.6976560844,1.5339030381\H,4.5186372215,0.245
 7618971,1.6953341136\C,3.2190768283,-1.7384732447,-0.0742452411\H,3.12
 94353735,-2.3436568448,-0.9879185014\H,3.9736910476,-2.1993837782,0.58
 15512788\H,2.2451600134,-1.7277063985,0.4386215228\C,0.2000644414,0.45
 12024383,-0.1872905841\H,0.5303902207,-0.1202649241,-1.0623408254\C,0.
 4175863266,1.9318405417,-0.3355268583\H,-0.1013523771,2.3374139895,-1.
 2164073\H,0.08697047,2.4882154228,0.5535909834\H,1.4983825487,2.106334
 3815,-0.4693864802\I,-1.9008863261,-0.0660357316,0.0307879273\H,0.6668
 746995,0.0375139228,0.7144617216\\Version=ES64L-G16RevB.01\State=1-A\H
 F=-854.382092\RMSD=5.835e-09\RMSF=3.976e-06\ZeroPoint=0.1419855\Therma
 l=0.153079\Dipole=0.9466039,-0.0281663,0.6233428\DipoleDeriv=-0.341432
 5,0.0525561,0.0040112,0.0719529,-0.104459,-0.0055086,-0.0392816,-0.006
 2014,-0.0606851,0.0413022,-0.0485035,0.024174,-0.0346505,-0.0632965,0.
 178291,0.0427542,0.0644754,0.1451571,0.1181395,-0.0473808,0.0025196,-0
 .0465952,-0.0545794,-0.0133094,-0.004066,-0.0256343,0.0598688,-0.03724
 6,0.0041976,0.0955345,-0.0141142,0.0945669,-0.039093,0.0765262,-0.0896
 446,-0.052431,0.0140517,0.0633589,-0.0856537,0.0656742,0.0547861,0.019
 0682,-0.0983194,-0.0505269,-0.0897317,0.0472538,0.0537067,-0.029184,0.
 0082901,0.1628667,-0.1486456,0.0101069,-0.0488956,-0.105434,0.1251315,
 -0.0338873,-0.0120383,-0.0273901,-0.0112494,-0.0726214,-0.00633,-0.058
 994,0.0089101,0.0021124,0.0192461,-0.0807993,0.0241051,-0.0648026,0.06
 65175,-0.0659776,0.1339942,0.0394743,-0.0450097,-0.0570867,0.0905192,-
 0.0387823,-0.0155666,0.0150508,0.1113539,0.0724738,0.066863,1.1605366,
 0.4323907,-0.1368813,0.4210585,0.225496,-0.0648048,-0.1462465,-0.06427
 33,-0.0332875,-0.1282504,-0.0413864,0.1002386,-0.0601837,0.0001984,-0.
 0238873,0.0328623,-0.064546,0.0597357,-0.3899313,-0.2216314,0.0557006,
 0.0040112,-0.0346474,0.0136533,0.0488043,0.0259238,0.0385384,0.0889993
 ,0.0693593,-0.0988114,0.0026162,0.0138879,0.0470431,-0.0794001,0.07164
 67,-0.036384,0.1153755,0.0637729,0.0530833,-0.0004061,-0.0103296,-0.05
 33663,0.0474715,-0.0936078,-0.0422854,-0.0853615,-0.0688014,0.0268471,
 -0.2072524,0.0206183,0.0102593,0.0342612,0.0287018,0.119858,-0.5257083
 ,-0.1985337,0.0392787,-0.1168581,-0.2396213,0.019218,0.0446242,0.02349
 73,-0.1500486,-0.1599628,-0.0413772,-0.048539,-0.0514757,0.0261314,0.0
 521351,-0.0091436,0.0816108,0.031882\Polar=135.6532176,15.6356899,120.
 2990081,-1.7965052,2.9884826,102.841713\Quadrupole=-3.6279091,3.171400
 8,0.4565083,-0.8394145,4.6823407,0.6103379\PG=C01 [X(C4H11I1S1)]\NImag
 =0\\0.06802322,0.05130147,0.24904570,-0.01832281,0.00700497,0.25664573
 ,-0.03624298,-0.00134179,0.00672211,0.55599620,-0.00486809,-0.05969685
 ,-0.01722100,0.00163358,0.52930528,-0.00350087,-0.05293019,-0.15277191
 ,-0.00942666,-0.08464216,0.42231567,-0.00116732,0.00020038,-0.00003665
 ,-0.06420322,-0.07253981,0.01222781,0.06297471,-0.00211747,-0.00850823
 ,0.00179261,-0.07275785,-0.30632123,0.04551766,0.07750198,0.32264599,-
 0.00660883,-0.02295790,0.00470615,0.01192151,0.04426150,-0.04876049,-0
 .01248213,-0.04444965,0.05347045,0.00618413,-0.00066822,-0.00260885,-0
 .27587189,-0.00817114,0.10831998,-0.00453046,0.00179588,0.00138857,0.2
 8990307,0.00835066,-0.00278398,-0.01186351,-0.00435496,-0.04433651,0.0
 0785856,-0.02550037,0.00198849,0.01224221,0.00849983,0.04248799,0.0180
 4939,-0.00422001,-0.01986985,0.11306771,0.00731783,-0.09220524,0.00228
 328,-0.00049547,-0.00157702,-0.11546219,-0.00262855,0.10268699,0.00432
 765,-0.00196484,0.00121270,-0.18030195,0.08717639,-0.10981356,0.006556
 44,-0.00447364,0.00644447,-0.01468733,0.01221968,-0.01592804,0.1846985
 0,-0.00925092,0.00234708,-0.01450976,0.08377229,-0.09927474,0.07539313
 ,0.02027692,-0.00910244,0.01549509,-0.00255182,0.00090556,-0.00117835,
 -0.09247755,0.10262013,-0.01299104,0.00373653,-0.02228800,-0.11403559,
 0.07788689,-0.13473060,-0.00180906,0.00033267,-0.00158500,0.00915586,-
 0.00631317,0.00895906,0.11813768,-0.07585992,0.14716922,-0.04463279,-0
 .03257076,0.00936513,0.00112941,-0.00273952,0.00067478,0.00002340,0.00
 015689,-0.00006919,0.00111953,0.00165587,-0.00088206,-0.00012311,-0.00
 071569,0.00160721,0.54178653,-0.02872029,-0.13585945,0.02293682,-0.005
 87768,-0.01844149,0.00342703,0.00010352,-0.00056873,-0.00294538,0.0005
 8583,0.00163667,0.00223838,-0.00026467,0.00251045,0.00134914,-0.046130
 38,0.40027481,0.01861783,0.05893989,-0.06811311,-0.00810701,-0.0289018
 4,0.00465100,-0.00018347,-0.00333444,-0.00702037,-0.00037732,0.0001056
 6,0.00178563,0.00015227,-0.00026368,0.00205452,0.01090298,0.04456719,0
 .56634461,-0.00146940,-0.00331004,-0.00613639,-0.00064405,-0.00198165,
 0.00089462,0.00035344,-0.00032135,-0.00063364,0.00010103,-0.00002768,-
 0.00010210,0.00005098,0.00014028,0.00026230,-0.04582237,-0.01154272,-0
 .01961395,0.04364569,-0.00109378,-0.01176011,-0.01951823,-0.00209660,-
 0.00656115,0.00304651,-0.00007105,-0.00066240,-0.00220126,0.00008474,0
 .00027219,0.00035327,-0.00005071,0.00023643,0.00021118,-0.01147961,-0.
 12641771,-0.13289828,0.01443544,0.13651963,0.00054942,0.00527700,0.008
 40053,0.00079968,0.00266124,-0.00035378,0.00008798,0.00052694,0.000894
 28,-0.00012482,0.00004544,-0.00007461,0.00015968,0.00001050,0.00000619
 ,-0.01928291,-0.13164182,-0.24727314,0.02011270,0.13865307,0.25875911,
 0.00826580,-0.00859295,0.00745186,0.00038632,0.00093411,0.00094877,-0.
 00001135,0.00001427,0.00021723,-0.00022210,-0.00009730,-0.00006300,-0.
 00040964,0.00071510,-0.00035415,-0.18390288,0.07985554,-0.11652242,-0.
 00073217,0.00049519,0.00116737,0.19122797,0.00962366,-0.02031481,0.016
 52754,0.00043819,0.00266118,0.00091524,-0.00016500,0.00031380,0.000192
 71,-0.00000335,-0.00020557,-0.00022654,-0.00020815,0.00002090,-0.00107
 162,0.08564036,-0.08479029,0.06649947,-0.01275646,0.00813848,-0.009597
 74,-0.08274027,0.09394824,-0.00212798,0.00379437,-0.00354512,0.0015411
 6,-0.00116965,0.00141047,0.00007210,0.00001003,-0.00001455,-0.00007875
 ,0.00009003,-0.00005179,-0.00033186,0.00087297,0.00041867,-0.11751249,
 0.06526503,-0.14563195,-0.01617703,0.01126466,-0.01155241,0.12394997,-
 0.07345815,0.14924179,-0.00122715,-0.00420272,0.00271048,0.00078472,0.
 00053985,-0.00024668,0.00016089,0.00009512,-0.00003710,-0.00043681,-0.
 00052708,-0.00043157,-0.00016832,0.00006225,-0.00011716,-0.26889834,0.
 01174750,0.11508508,0.00453874,-0.00019731,-0.00348702,-0.01461805,0.0
 0026531,0.01057835,0.28051909,-0.02394959,-0.01173052,0.01479637,0.000
 49575,0.00281335,0.00132196,0.00020024,0.00019995,0.00036577,0.0007419
 0,0.00016198,-0.00098130,0.00006198,-0.00024760,-0.00023241,0.00586109
 ,-0.03786346,-0.00495574,0.01536128,0.00022867,-0.00590890,0.00930149,
 0.00020746,-0.00655348,-0.00887166,0.04706325,0.00554554,0.00168482,-0
 .00330052,-0.00210253,-0.00027751,0.00095415,-0.00005479,0.00005060,-0
 .00005201,0.00052371,0.00057580,0.00053232,0.00007802,0.00004055,-0.00
 005852,0.11520516,-0.00545758,-0.10655311,0.02143764,0.00107877,-0.008
 81602,-0.01675362,0.00017799,0.00969556,-0.12381524,0.00225926,0.10770
 238,0.00057362,-0.00026864,-0.00037033,-0.00032104,-0.00013355,-0.0006
 5167,-0.00003228,0.00001873,0.00002756,-0.00071744,-0.00009599,-0.0001
 9484,-0.00000697,-0.00004976,0.00011172,0.00002536,0.00018873,0.000030
 07,-0.00001317,-0.00004173,-0.00000041,0.00001189,-0.00016962,0.000088
 16,-0.00031982,0.00026890,0.00005164,0.28321248,-0.00001007,-0.0003643
 0,0.00004338,-0.00022605,-0.00010385,-0.00017355,-0.00008432,-0.000011
 74,0.00001429,-0.00000543,0.00010567,0.00009584,-0.00004302,-0.0000381
 3,-0.00004530,0.00016391,-0.00034921,0.00042490,0.00000933,-0.00000585
 ,-0.00002661,0.00007285,-0.00002924,-0.00007251,0.00054742,-0.00018243
 ,-0.00029348,-0.07359228,0.50213738,-0.00090261,0.00005968,0.00037600,
 0.00025359,0.00015499,-0.00034648,0.00005927,0.00000562,-0.00001859,-0
 .00078907,-0.00025308,-0.00021992,0.00000013,-0.00005743,-0.00005653,0
 .00019707,-0.00040238,-0.00007070,0.00008463,-0.00003282,-0.00004041,0
 .00006413,0.00000467,-0.00004167,-0.00008347,0.00043185,0.00005624,0.0
 3150427,0.01517115,0.59881646,-0.00025059,0.00015341,0.00001221,0.0001
 8372,-0.00017692,-0.00015653,0.00000981,0.00000824,0.00001482,-0.00011
 774,0.00000981,0.00006917,-0.00003710,0.00005102,0.00009570,-0.0000379
 2,0.00010873,0.00004351,-0.00003882,-0.00000240,0.00000333,0.00000422,
 -0.00007016,0.00000626,-0.00002867,0.00004425,-0.00009864,-0.05835086,
 0.05349614,0.07422801,0.06699374,0.00035239,0.00000835,0.00011703,0.00
 004290,-0.00008450,0.00004434,0.00000463,0.00001058,0.00000579,0.00003
 062,0.00001412,-0.00001006,0.00002084,0.00003645,0.00005949,-0.0000526
 4,0.00014539,-0.00005904,0.00001069,-0.00001485,-0.00000260,-0.0000043
 1,-0.00003392,0.00000271,0.00005083,-0.00008926,0.00012884,0.04677907,
 -0.12369671,-0.12037383,-0.04536671,0.13396130,0.00064801,-0.00012382,
 0.00019234,0.00000222,-0.00012338,-0.00021029,0.00000258,0.00001079,0.
 00002358,-0.00007234,0.00000328,0.00003661,-0.00002274,0.00002014,0.00
 008873,-0.00004369,0.00036013,-0.00007931,-0.00002140,-0.00000991,-0.0
 0000843,0.00005455,0.00000082,-0.00001047,-0.00008164,0.00012090,-0.00
 013183,0.06919725,-0.12259293,-0.24275861,-0.07253763,0.12951720,0.247
 93892,-0.00066525,0.00062482,0.00014679,0.00013387,-0.00006574,0.00020
 755,-0.00003078,-0.00003273,-0.00002432,0.00003538,0.00004692,-0.00008
 285,0.00005407,-0.00004758,-0.00000215,0.00000741,0.00006227,-0.000086
 53,-0.00000452,0.00000055,0.00001328,-0.00004743,-0.00000447,0.0000377
 4,-0.00005981,-0.00009362,0.00008268,-0.05949604,-0.01637621,-0.000697
 32,0.00209157,0.00906253,-0.00235763,0.56491560,0.00050841,-0.00064013
 ,-0.00022595,-0.00006172,-0.00009346,-0.00039896,-0.00002710,-0.000023
 85,0.00000583,-0.00014864,-0.00000601,0.00011555,-0.00005421,-0.000014
 79,0.00002376,0.00031628,-0.00007520,0.00018128,-0.00001266,-0.0000019
 7,-0.00000134,-0.00005861,-0.00015723,0.00002954,0.00005000,-0.0000569
 5,0.00003510,-0.01163880,-0.24044741,0.01459107,-0.00310419,-0.0146888
 1,0.00412966,-0.03092288,0.51459123,0.00024788,-0.00042301,-0.00020777
 ,-0.00012802,0.00006078,-0.00001175,0.00006115,0.00005582,-0.00000632,
 0.00009448,-0.00003922,0.00003668,-0.00002149,0.00008755,0.00008271,0.
 00014096,0.00014824,0.00003064,-0.00002473,0.00001758,0.00000670,-0.00
 004007,-0.00003701,0.00003759,-0.00006888,-0.00006435,0.00002704,-0.00
 115800,0.01444329,-0.08540024,-0.00453985,-0.02536186,0.00554950,0.004
 05889,0.01073239,0.59213216,-0.00018798,0.00009108,-0.00004773,0.00003
 021,0.00006344,0.00009117,0.00003092,0.00002808,-0.00000027,0.00001402
 ,-0.00004039,0.00006155,-0.00001306,0.00001660,0.00001440,-0.00006242,
 -0.00001835,-0.00003765,0.00000753,0.00001337,-0.00000279,0.00001228,0
 .00005423,-0.00000976,-0.00001707,0.00002518,0.00001369,0.00047896,-0.
 00459359,0.00690798,-0.00016137,0.00025181,-0.00026588,-0.10890065,0.0
 5000675,-0.10889562,0.11202234,-0.00001523,-0.00001971,0.00003006,-0.0
 0003870,0.00002648,-0.00004837,0.00001989,0.00000870,-0.00000239,-0.00
 004436,-0.00002027,-0.00003204,-0.00000341,0.00000990,0.00001207,-0.00
 002147,-0.00003281,0.00003135,0.00000869,-0.00000348,-0.00000602,0.000
 02464,-0.00000888,-0.00001233,0.00003341,0.00004714,-0.00003717,0.0159
 8351,-0.01177331,0.02733574,-0.00023456,0.00139801,-0.00030985,0.04684
 886,-0.08012541,0.07742651,-0.05071228,0.08903355,0.00000801,0.0000119
 2,-0.00001830,0.00000981,-0.00000423,-0.00000369,0.00000369,-0.0000066
 4,-0.00000015,-0.00000821,-0.00000620,0.00000624,0.00000135,-0.0000051
 8,-0.00000163,0.00001000,0.00000154,-0.00000987,-0.00000206,-0.0000007
 2,0.00000054,-0.00000155,-0.00000106,0.00000401,-0.00000505,-0.0000134
 2,0.00001211,0.00012139,0.00040129,-0.00113284,0.00043907,0.00020662,0
 .00076300,-0.10782213,0.07979075,-0.22907937,0.11619804,-0.08753624,0.
 23957839,-0.00015602,0.00022639,0.00000362,0.00007757,0.00003307,0.000
 11841,0.00000737,-0.00000842,0.00000708,0.00001666,0.00000668,0.000006
 21,-0.00000059,-0.00000525,-0.00002328,-0.00013759,-0.00003603,-0.0000
 4743,0.00000345,0.00000380,0.00000216,0.00002476,0.00006374,-0.0000238
 0,0.00001289,0.00000946,-0.00001600,-0.00091609,-0.00522577,-0.0057425
 9,0.00122424,-0.00130011,0.00017162,-0.07115189,0.04422971,0.07001387,
 0.00458083,-0.00862819,-0.01200463,0.07101954,0.00001372,0.00002135,0.
 00003363,0.00000495,-0.00002321,-0.00001689,0.00000087,0.00000099,0.00
 000363,-0.00000856,0.00000364,-0.00002273,0.00000164,0.00000334,0.0000
 0871,-0.00001247,0.00001054,0.00002878,-0.00000665,0.00000164,0.000000
 60,0.00001629,-0.00000328,-0.00000603,0.00000864,0.00002080,-0.0000306
 5,0.01037109,-0.01624996,-0.02721499,-0.00127154,-0.00569278,0.0014486
 3,0.04164536,-0.11276342,-0.11082370,-0.00456933,0.00559457,0.00952464
 ,-0.04481633,0.12475078,0.00001022,0.00000351,0.00002388,0.00001336,-0
 .00001723,-0.00000496,0.00000095,-0.00000099,-0.00000420,-0.00000704,0
 .00000907,-0.00001840,0.00000449,-0.00000099,-0.00000227,0.00000718,0.
 00000262,0.00000608,0.00000165,-0.00000142,-0.00000047,-0.00000511,-0.
 00000442,-0.00000122,-0.00000839,0.00000850,-0.00000831,-0.00185002,0.
 00359419,0.00493974,0.00025495,0.00118322,0.00121753,0.06969997,-0.113
 99819,-0.23489933,0.00867330,-0.01188085,-0.01603621,-0.07537549,0.121
 57214,0.24514498,-0.00058881,0.00029512,-0.00011146,-0.00035054,0.0001
 4252,-0.00010108,-0.00018249,0.00006987,-0.00014716,0.00001678,0.00003
 366,-0.00000672,-0.00003413,0.00006244,0.00004511,0.00009448,0.0000261
 3,-0.00001640,0.00000014,-0.00000776,0.00000159,-0.00001547,-0.0000057
 8,0.00000375,-0.00003729,0.00000816,0.00000421,-0.00589518,-0.00273929
 ,0.00058564,0.00045883,0.00001682,-0.00002270,-0.30872430,-0.03919966,
 0.03237629,-0.01080579,-0.00239195,0.00321231,-0.00590348,-0.00158182,
 -0.00081393,0.32986767,-0.00011431,0.00019440,0.00005705,0.00039099,0.
 00009046,0.00048679,0.00002852,0.00001488,-0.00002075,0.00004344,-0.00
 012239,0.00011089,-0.00002763,-0.00002812,-0.00007246,-0.00048060,-0.0
 0012327,-0.00016392,0.00001347,0.00003994,-0.00000023,0.00008027,0.000
 24366,-0.00006739,0.00006878,0.00002958,-0.00000576,-0.02762642,-0.005
 19614,0.00328255,0.00009811,0.00098100,-0.00049726,-0.04037894,-0.0503
 4274,0.00502854,0.01073588,0.00100613,-0.00250066,0.01498599,0.0020675
 8,-0.00020854,0.04588759,0.05417475,0.00029265,0.00005984,0.00008024,-
 0.00013916,0.00009627,-0.00015543,-0.00014321,0.00000256,-0.00005151,-
 0.00009290,0.00013701,-0.00017334,-0.00001420,-0.00005107,-0.00006626,
 -0.00017886,-0.00002785,-0.00007337,-0.00000322,-0.00000970,0.00000537
 ,0.00003710,0.00005240,-0.00001720,0.00002155,-0.00000208,-0.00001268,
 0.00291668,0.00064921,-0.00169081,-0.00010317,0.00010737,0.00023990,0.
 03262601,0.00488891,-0.04864500,-0.02339853,-0.00475162,0.00436236,0.0
 2323307,0.00530581,-0.00137201,-0.03507236,-0.00651682,0.04662587,-0.0
 0087202,0.00006381,-0.00017884,-0.00000954,0.00015376,0.00029133,-0.00
 002146,0.00001062,-0.00000494,0.00019695,0.00003351,0.00013827,-0.0000
 0119,-0.00000267,-0.00007439,-0.00004468,-0.00032371,0.00006821,-0.000
 00186,0.00003047,0.00000618,-0.00000290,0.00006110,-0.00001897,0.00011
 924,-0.00017575,0.00002253,-0.07178699,-0.00420855,0.00434932,-0.01782
 603,-0.00637228,-0.00267263,-0.02153131,-0.00719027,0.00271996,0.00172
 679,0.00045549,-0.00006121,0.00150757,0.00041534,-0.00035948,0.0016770
 4,-0.00401280,0.00013594,0.12626731,0.00010015,-0.00001156,-0.00000702
 ,0.00001363,-0.00000630,-0.00001970,0.00001313,0.00001318,0.00000406,-
 0.00002088,-0.00001676,0.00001053,-0.00000964,0.00000793,0.00000777,-0
 .00004289,0.00002730,-0.00001404,-0.00000742,0.00000323,0.00000216,0.0
 0000724,0.00001219,-0.00000309,-0.00002365,-0.00000984,-0.00000107,-0.
 00715372,-0.01796084,0.00038124,0.00324968,0.00169718,0.00086184,-0.02
 425135,-0.00454722,0.00262957,0.00018633,0.00075889,-0.00027785,0.0001
 7585,0.00073924,0.00006842,-0.00048333,-0.00402317,0.00036240,0.027113
 45,0.02245779,0.00030784,0.00000196,-0.00003275,0.00000619,-0.00005737
 ,-0.00001791,-0.00002034,0.00000340,0.00000380,0.00002746,0.00002678,0
 .00004569,-0.00000829,0.00000175,0.00002962,-0.00000426,0.00007603,-0.
 00001572,-0.00001086,0.00000351,0.00000128,-0.00000635,-0.00000774,0.0
 0000881,-0.00000620,-0.00002969,-0.00001550,0.00463927,0.00009414,-0.0
 2113774,0.01272783,0.00471271,0.00238308,0.00386564,0.00107118,-0.0000
 4835,0.00049088,-0.00019033,0.00011190,-0.00071612,0.00001133,0.000169
 50,0.00003505,0.00077028,0.00084298,-0.01149510,-0.00322998,0.01345626
 ,0.00008589,-0.00003650,0.00018817,-0.00077682,-0.00000029,0.00012263,
 0.00006239,0.00001176,-0.00001367,-0.00100380,-0.00021284,-0.00052221,
 0.00009574,0.00000435,-0.00002316,-0.00052399,0.00023558,0.00009222,0.
 00002536,-0.00002258,-0.00000542,0.00002876,-0.00002332,0.00000315,-0.
 00032426,0.00071097,-0.00012400,-0.08644642,0.05281495,-0.11001899,0.0
 0588299,-0.00352705,0.00802206,0.00337406,-0.00269242,0.00516318,0.001
 24446,-0.00128433,-0.00009882,-0.00020924,-0.00021120,-0.00024660,0.00
 042254,0.00030766,-0.00011737,-0.01939693,0.00113341,-0.00983263,0.097
 45926,-0.00011069,0.00007278,0.00000601,-0.00003692,0.00004654,0.00021
 862,0.00003759,0.00000204,-0.00001354,-0.00015983,-0.00008482,-0.00044
 723,0.00009694,0.00000763,-0.00003333,0.00045164,-0.00008353,-0.000187
 52,-0.00001253,-0.00001270,0.00000830,-0.00002355,-0.00000269,0.000013
 30,0.00035332,-0.00059210,0.00007151,0.04716047,-0.08583392,0.08691596
 ,-0.00699291,0.00604845,-0.01281624,0.01388223,-0.01060662,0.02611889,
 -0.00153882,-0.00589950,0.00041544,0.00028540,0.00151819,-0.00032905,-
 0.00013270,0.00099346,-0.00030264,-0.00605151,0.00085876,-0.00325796,-
 0.04720814,0.09356803,0.00017736,0.00008045,-0.00027754,-0.00039839,-0
 .00002512,0.00024125,-0.00006915,-0.00002150,-0.00000803,0.00011143,0.
 00000989,0.00010096,-0.00005059,0.00000471,-0.00001991,-0.00013701,0.0
 0010285,-0.00003184,-0.00006816,0.00004380,0.00004530,-0.00014471,0.00
 003345,0.00004947,-0.00000705,-0.00056323,-0.00003129,-0.10446275,0.08
 827272,-0.25127388,-0.01045904,0.00972206,-0.01523426,0.00033437,-0.00
 097059,0.00039511,0.00020722,-0.00002852,0.00144351,0.00039330,0.00017
 709,0.00084567,0.00002786,0.00031769,0.00010090,0.00713384,-0.00077524
 ,0.00421504,0.10741149,-0.09638053,0.25943953\\-0.00000711,-0.00000689
 ,-0.00000088,-0.00000380,0.00000713,-0.00000295,0.00000339,-0.00000045
 ,-0.00000802,0.00000850,-0.00000141,-0.00000239,0.00000320,-0.00000141
 ,-0.00000286,0.00000033,0.00000062,0.00000602,-0.00000664,-0.00000522,
 0.00000435,-0.00000474,-0.00000028,-0.00000017,0.00000148,-0.00000560,
 0.00000110,-0.00000722,0.00000033,0.00000305,0.00000162,-0.00000104,0.
 00000215,0.00000455,-0.00000134,-0.00000036,-0.00000018,0.00000051,-0.
 00000118,0.00000267,0.00000444,-0.00000193,0.00000144,-0.00000091,-0.0
 0000374,0.00000419,0.00000627,0.00000651,-0.00000169,0.00000525,0.0000
 0129\\\@


 IF I HAVE SEEN FARTHER, IT IS BY STANDING ON THE
 SHOULDERS OF GIANTS. -- SIR ISAAC NEWTON
 Job cpu time:       0 days  0 hours 16 minutes 30.1 seconds.
 Elapsed time:       0 days  0 hours  0 minutes 42.3 seconds.
 File lengths (MBytes):  RWF=    171 Int=      0 D2E=      0 Chk=      9 Scr=      2
 Normal termination of Gaussian 16 at Sat Dec 18 15:43:47 2021.
